
     Program PWSCF v.6.1 (svn rev. 13369) starts on 11Jun2017 at  0:15:40 

     This program is part of the open-source Quantum ESPRESSO suite
     for quantum simulation of materials; please cite
         "P. Giannozzi et al., J. Phys.:Condens. Matter 21 395502 (2009);
          URL http://www.quantum-espresso.org", 
     in publications or presentations arising from this work. More details at
     http://www.quantum-espresso.org/quote

     Parallel version (MPI), running on     1 processors
     Waiting for input...
     Reading input from standard input

     Current dimensions of program PWSCF are:
     Max number of different atomic species (ntypx) = 10
     Max number of k-points (npk) =  40000
     Max angular momentum in pseudopotentials (lmaxx) =  3
     Message from routine iosys:
     minimal I/O required, wf_collect reset to FALSE

     gamma-point specific algorithms are used

     Subspace diagonalization in iterative solution of the eigenvalue problem:
     a serial algorithm will be used


     G-vector sticks info
     --------------------
     sticks:   dense  smooth     PW     G-vecs:    dense   smooth      PW
     Sum        3761    3761    949               172821   172821   21631



     bravais-lattice index     =            0
     lattice parameter (alat)  =      16.0000  a.u.
     unit-cell volume          =    4096.0000 (a.u.)^3
     number of atoms/cell      =            4
     number of atomic types    =            2
     number of electrons       =         8.00
     number of Kohn-Sham states=            4
     kinetic-energy cutoff     =      46.0000  Ry
     charge density cutoff     =     184.0000  Ry
     convergence threshold     =      1.0E-06
     mixing beta               =       0.7000
     number of iterations used =            8  plain     mixing
     Exchange-correlation      = PBE ( 1  4  3  4 0 0)

     celldm(1)=  16.000000  celldm(2)=   0.000000  celldm(3)=   0.000000
     celldm(4)=   0.000000  celldm(5)=   0.000000  celldm(6)=   0.000000

     crystal axes: (cart. coord. in units of alat)
               a(1) = (   1.000000   0.000000   0.000000 )  
               a(2) = (   0.000000   1.000000   0.000000 )  
               a(3) = (   0.000000   0.000000   1.000000 )  

     reciprocal axes: (cart. coord. in units 2 pi/alat)
               b(1) = (  1.000000  0.000000  0.000000 )  
               b(2) = (  0.000000  1.000000  0.000000 )  
               b(3) = (  0.000000  0.000000  1.000000 )  


     PseudoPot. # 1 for  H read from file:
     ../GTH_PBE/H.q1.gth
     MD5 check sum: 1bc203b4ccdc7556521da00b64edec72
     Pseudo is Norm-conserving, Zval =  1.0
     GTH norm-conserving PP, generated by Matthias Krack
     Using radial grid of  929 points,  1 beta functions with: 
                l(1) =   0

     PseudoPot. # 2 for  N read from file:
     ../GTH_PBE/N.q5.gth
     MD5 check sum: b363b8d5f1d7321863e01e4875e4890c
     Pseudo is Norm-conserving, Zval =  5.0
     GTH norm-conserving PP, generated by Matthias Krack
     Using radial grid of 1085 points,  1 beta functions with: 
                l(1) =   0

     atomic species   valence    mass     pseudopotential
        H              1.00     1.01000      H( 1.00)
        N              5.00    14.01000      N( 1.00)

     No symmetry found



   Cartesian axes

     site n.     atom                  positions (alat units)
         1           N   tau(   1) = (   0.4503085   0.4518267   0.4524722  )
         2           H   tau(   2) = (   0.5667983   0.4305661   0.4292002  )
         3           H   tau(   3) = (   0.4332017   0.5694339   0.4316014  )
         4           H   tau(   4) = (   0.4365324   0.4366156   0.5707998  )

     number of k points=     1
                       cart. coord. in units 2pi/alat
        k(    1) = (   0.0000000   0.0000000   0.0000000), wk =   2.0000000

     Dense  grid:    86411 G-vectors     FFT dimensions: (  72,  72,  72)

     Estimated max dynamical RAM per process >      65.51MB

     Initial potential from superposition of free atoms

     negative rho (up, down):  2.819E-08 0.000E+00
     Starting wfc are random

     total cpu time spent up to now is        0.4 secs

     per-process dynamical memory:    56.1 Mb

     Self-consistent Calculation

     iteration #  1     ecut=    46.00 Ry     beta=0.70
     Davidson diagonalization with overlap
     ethr =  1.00E-02,  avg # of iterations = 10.0

     total cpu time spent up to now is        1.3 secs

     total energy              =     -17.95391560 Ry
     Harris-Foulkes estimate   =     -25.69742916 Ry
     estimated scf accuracy    <      10.05010904 Ry

     iteration #  2     ecut=    46.00 Ry     beta=0.70
     Davidson diagonalization with overlap
     ethr =  1.00E-02,  avg # of iterations =  6.0

     total cpu time spent up to now is        1.9 secs

     total energy              =     -22.52261707 Ry
     Harris-Foulkes estimate   =     -26.13210085 Ry
     estimated scf accuracy    <       6.98902154 Ry

     iteration #  3     ecut=    46.00 Ry     beta=0.70
     Davidson diagonalization with overlap
     ethr =  1.00E-02,  avg # of iterations =  3.0

     total cpu time spent up to now is        2.5 secs

     total energy              =     -23.19513499 Ry
     Harris-Foulkes estimate   =     -23.34826569 Ry
     estimated scf accuracy    <       0.52600550 Ry

     iteration #  4     ecut=    46.00 Ry     beta=0.70
     Davidson diagonalization with overlap
     ethr =  6.58E-03,  avg # of iterations =  1.0

     total cpu time spent up to now is        2.9 secs

     total energy              =     -23.04897176 Ry
     Harris-Foulkes estimate   =     -23.20251420 Ry
     estimated scf accuracy    <       0.24683534 Ry

     iteration #  5     ecut=    46.00 Ry     beta=0.70
     Davidson diagonalization with overlap
     ethr =  3.09E-03,  avg # of iterations =  2.0

     total cpu time spent up to now is        3.4 secs

     total energy              =     -23.08574564 Ry
     Harris-Foulkes estimate   =     -23.09452314 Ry
     estimated scf accuracy    <       0.01512383 Ry

     iteration #  6     ecut=    46.00 Ry     beta=0.70
     Davidson diagonalization with overlap
     ethr =  1.89E-04,  avg # of iterations =  2.0

     total cpu time spent up to now is        3.9 secs

     total energy              =     -23.09014507 Ry
     Harris-Foulkes estimate   =     -23.09088840 Ry
     estimated scf accuracy    <       0.00175547 Ry

     iteration #  7     ecut=    46.00 Ry     beta=0.70
     Davidson diagonalization with overlap
     ethr =  2.19E-05,  avg # of iterations =  2.0

     negative rho (up, down):  3.719E-05 0.000E+00

     total cpu time spent up to now is        4.4 secs

     total energy              =     -23.09048788 Ry
     Harris-Foulkes estimate   =     -23.09045684 Ry
     estimated scf accuracy    <       0.00002107 Ry

     iteration #  8     ecut=    46.00 Ry     beta=0.70
     Davidson diagonalization with overlap
     ethr =  2.63E-07,  avg # of iterations =  3.0

     negative rho (up, down):  1.335E-05 0.000E+00

     total cpu time spent up to now is        5.0 secs

     total energy              =     -23.09049387 Ry
     Harris-Foulkes estimate   =     -23.09049964 Ry
     estimated scf accuracy    <       0.00001099 Ry

     iteration #  9     ecut=    46.00 Ry     beta=0.70
     Davidson diagonalization with overlap
     ethr =  1.37E-07,  avg # of iterations =  2.0

     total cpu time spent up to now is        5.4 secs

     End of self-consistent calculation

          k = 0.0000 0.0000 0.0000 ( 10816 PWs)   bands (ev):

   -21.1142 -11.0077 -10.9754  -5.9658

     highest occupied level (ev):    -5.9658

!    total energy              =     -23.09049660 Ry
     Harris-Foulkes estimate   =     -23.09049699 Ry
     estimated scf accuracy    <       0.00000060 Ry

     The total energy is the sum of the following terms:

     one-electron contribution =     -46.42826194 Ry
     hartree contribution      =      24.24541166 Ry
     xc contribution           =      -7.15566057 Ry
     ewald contribution        =       6.24801425 Ry

     convergence has been achieved in   9 iterations

     Forces acting on atoms (cartesian axes, Ry/au):

     atom    1 type  2   force =    -0.01449653   -0.01341112   -0.02191059
     atom    2 type  1   force =     0.01932393   -0.00297235   -0.00300024
     atom    3 type  1   force =    -0.00229346    0.01956353   -0.00291158
     atom    4 type  1   force =    -0.00253394   -0.00318006    0.02782241

     Total force =     0.049482     Total SCF correction =     0.000876

     init_run     :      0.38s CPU      0.40s WALL (       1 calls)
     electrons    :      4.96s CPU      5.00s WALL (       1 calls)
     forces       :      0.20s CPU      0.20s WALL (       1 calls)

     Called by init_run:
     wfcinit      :      0.04s CPU      0.05s WALL (       1 calls)
     potinit      :      0.25s CPU      0.26s WALL (       1 calls)

     Called by electrons:
     c_bands      :      1.43s CPU      1.45s WALL (       9 calls)
     sum_band     :      0.44s CPU      0.44s WALL (       9 calls)
     v_of_rho     :      2.79s CPU      2.83s WALL (      10 calls)
     mix_rho      :      0.38s CPU      0.38s WALL (       9 calls)

     Called by c_bands:
     init_us_2    :      0.01s CPU      0.02s WALL (      19 calls)
     regterg      :      1.43s CPU      1.44s WALL (       9 calls)

     Called by sum_band:

     Called by *egterg:
     h_psi        :      1.37s CPU      1.37s WALL (      41 calls)
     g_psi        :      0.02s CPU      0.02s WALL (      31 calls)
     rdiaghg      :      0.00s CPU      0.00s WALL (      40 calls)

     Called by h_psi:
     h_psi:pot    :      1.36s CPU      1.36s WALL (      41 calls)
     h_psi:calbec :      0.01s CPU      0.01s WALL (      41 calls)
     vloc_psi     :      1.34s CPU      1.35s WALL (      41 calls)
     add_vuspsi   :      0.00s CPU      0.01s WALL (      41 calls)

     General routines
     calbec       :      0.01s CPU      0.01s WALL (      45 calls)
     fft          :      1.15s CPU      1.16s WALL (     111 calls)
     fftw         :      1.24s CPU      1.23s WALL (     170 calls)

     Parallel routines
     fft_scatter  :      0.46s CPU      0.49s WALL (     281 calls)

     PWSCF        :     5.55s CPU         5.61s WALL


   This run was terminated on:   0:15:45  11Jun2017            

=------------------------------------------------------------------------------=
   JOB DONE.
=------------------------------------------------------------------------------=
