
     Program PWSCF v.6.1 (svn rev. 13369) starts on 11Jun2017 at  0:15: 6 

     This program is part of the open-source Quantum ESPRESSO suite
     for quantum simulation of materials; please cite
         "P. Giannozzi et al., J. Phys.:Condens. Matter 21 395502 (2009);
          URL http://www.quantum-espresso.org", 
     in publications or presentations arising from this work. More details at
     http://www.quantum-espresso.org/quote

     Parallel version (MPI), running on     1 processors
     Waiting for input...
     Reading input from standard input

     Current dimensions of program PWSCF are:
     Max number of different atomic species (ntypx) = 10
     Max number of k-points (npk) =  40000
     Max angular momentum in pseudopotentials (lmaxx) =  3
     Message from routine iosys:
     minimal I/O required, wf_collect reset to FALSE

     gamma-point specific algorithms are used

     Subspace diagonalization in iterative solution of the eigenvalue problem:
     a serial algorithm will be used


     G-vector sticks info
     --------------------
     sticks:   dense  smooth     PW     G-vecs:    dense   smooth      PW
     Sum        2449    2449    609                91047    91047   11363



     bravais-lattice index     =            0
     lattice parameter (alat)  =      16.0000  a.u.
     unit-cell volume          =    4096.0000 (a.u.)^3
     number of atoms/cell      =            4
     number of atomic types    =            2
     number of electrons       =         8.00
     number of Kohn-Sham states=            4
     kinetic-energy cutoff     =      30.0000  Ry
     charge density cutoff     =     120.0000  Ry
     convergence threshold     =      1.0E-06
     mixing beta               =       0.7000
     number of iterations used =            8  plain     mixing
     Exchange-correlation      = PBE ( 1  4  3  4 0 0)

     celldm(1)=  16.000000  celldm(2)=   0.000000  celldm(3)=   0.000000
     celldm(4)=   0.000000  celldm(5)=   0.000000  celldm(6)=   0.000000

     crystal axes: (cart. coord. in units of alat)
               a(1) = (   1.000000   0.000000   0.000000 )  
               a(2) = (   0.000000   1.000000   0.000000 )  
               a(3) = (   0.000000   0.000000   1.000000 )  

     reciprocal axes: (cart. coord. in units 2 pi/alat)
               b(1) = (  1.000000  0.000000  0.000000 )  
               b(2) = (  0.000000  1.000000  0.000000 )  
               b(3) = (  0.000000  0.000000  1.000000 )  


     PseudoPot. # 1 for  H read from file:
     ../GTH_PBE/H.q1.gth
     MD5 check sum: 1bc203b4ccdc7556521da00b64edec72
     Pseudo is Norm-conserving, Zval =  1.0
     GTH norm-conserving PP, generated by Matthias Krack
     Using radial grid of  929 points,  1 beta functions with: 
                l(1) =   0

     PseudoPot. # 2 for  N read from file:
     ../GTH_PBE/N.q5.gth
     MD5 check sum: b363b8d5f1d7321863e01e4875e4890c
     Pseudo is Norm-conserving, Zval =  5.0
     GTH norm-conserving PP, generated by Matthias Krack
     Using radial grid of 1085 points,  1 beta functions with: 
                l(1) =   0

     atomic species   valence    mass     pseudopotential
        H              1.00     1.01000      H( 1.00)
        N              5.00    14.01000      N( 1.00)

     No symmetry found



   Cartesian axes

     site n.     atom                  positions (alat units)
         1           N   tau(   1) = (   0.4503085   0.4518267   0.4524722  )
         2           H   tau(   2) = (   0.5667983   0.4305661   0.4292002  )
         3           H   tau(   3) = (   0.4332017   0.5694339   0.4316014  )
         4           H   tau(   4) = (   0.4365324   0.4366156   0.5707998  )

     number of k points=     1
                       cart. coord. in units 2pi/alat
        k(    1) = (   0.0000000   0.0000000   0.0000000), wk =   2.0000000

     Dense  grid:    45524 G-vectors     FFT dimensions: (  60,  60,  60)

     Estimated max dynamical RAM per process >      35.85MB

     Initial potential from superposition of free atoms

     negative rho (up, down):  2.993E-08 0.000E+00
     Starting wfc are random

     total cpu time spent up to now is        0.2 secs

     per-process dynamical memory:    35.6 Mb

     Self-consistent Calculation

     iteration #  1     ecut=    30.00 Ry     beta=0.70
     Davidson diagonalization with overlap
     ethr =  1.00E-02,  avg # of iterations =  9.0

     total cpu time spent up to now is        0.6 secs

     total energy              =     -17.50153869 Ry
     Harris-Foulkes estimate   =     -25.57680792 Ry
     estimated scf accuracy    <      10.47342277 Ry

     iteration #  2     ecut=    30.00 Ry     beta=0.70
     Davidson diagonalization with overlap
     ethr =  1.00E-02,  avg # of iterations =  6.0

     total cpu time spent up to now is        1.0 secs

     total energy              =     -22.16458060 Ry
     Harris-Foulkes estimate   =     -25.45375576 Ry
     estimated scf accuracy    <       6.25631576 Ry

     iteration #  3     ecut=    30.00 Ry     beta=0.70
     Davidson diagonalization with overlap
     ethr =  1.00E-02,  avg # of iterations =  3.0

     total cpu time spent up to now is        1.3 secs

     total energy              =     -22.70238880 Ry
     Harris-Foulkes estimate   =     -22.87977743 Ry
     estimated scf accuracy    <       0.49740502 Ry

     iteration #  4     ecut=    30.00 Ry     beta=0.70
     Davidson diagonalization with overlap
     ethr =  6.22E-03,  avg # of iterations =  1.0

     total cpu time spent up to now is        1.5 secs

     total energy              =     -22.60508059 Ry
     Harris-Foulkes estimate   =     -22.71321783 Ry
     estimated scf accuracy    <       0.17869397 Ry

     iteration #  5     ecut=    30.00 Ry     beta=0.70
     Davidson diagonalization with overlap
     ethr =  2.23E-03,  avg # of iterations =  2.0

     total cpu time spent up to now is        1.8 secs

     total energy              =     -22.63102775 Ry
     Harris-Foulkes estimate   =     -22.63821669 Ry
     estimated scf accuracy    <       0.01177453 Ry

     iteration #  6     ecut=    30.00 Ry     beta=0.70
     Davidson diagonalization with overlap
     ethr =  1.47E-04,  avg # of iterations =  2.0

     total cpu time spent up to now is        2.0 secs

     total energy              =     -22.63450673 Ry
     Harris-Foulkes estimate   =     -22.63518270 Ry
     estimated scf accuracy    <       0.00153564 Ry

     iteration #  7     ecut=    30.00 Ry     beta=0.70
     Davidson diagonalization with overlap
     ethr =  1.92E-05,  avg # of iterations =  2.0

     negative rho (up, down):  9.600E-06 0.000E+00

     total cpu time spent up to now is        2.3 secs

     total energy              =     -22.63481444 Ry
     Harris-Foulkes estimate   =     -22.63478982 Ry
     estimated scf accuracy    <       0.00000813 Ry

     iteration #  8     ecut=    30.00 Ry     beta=0.70
     Davidson diagonalization with overlap
     ethr =  1.02E-07,  avg # of iterations =  3.0

     negative rho (up, down):  9.954E-06 0.000E+00

     total cpu time spent up to now is        2.6 secs

     total energy              =     -22.63481487 Ry
     Harris-Foulkes estimate   =     -22.63482129 Ry
     estimated scf accuracy    <       0.00001247 Ry

     iteration #  9     ecut=    30.00 Ry     beta=0.70
     Davidson diagonalization with overlap
     ethr =  1.02E-07,  avg # of iterations =  2.0

     total cpu time spent up to now is        2.8 secs

     End of self-consistent calculation

          k = 0.0000 0.0000 0.0000 (  5682 PWs)   bands (ev):

   -21.2458 -11.0361 -11.0049  -5.9757

     highest occupied level (ev):    -5.9757

!    total energy              =     -22.63481795 Ry
     Harris-Foulkes estimate   =     -22.63481803 Ry
     estimated scf accuracy    <       0.00000035 Ry

     The total energy is the sum of the following terms:

     one-electron contribution =     -45.54994644 Ry
     hartree contribution      =      23.73093075 Ry
     xc contribution           =      -7.06381650 Ry
     ewald contribution        =       6.24801425 Ry

     convergence has been achieved in   9 iterations

     Forces acting on atoms (cartesian axes, Ry/au):

     atom    1 type  2   force =    -0.07550930   -0.07119931   -0.07743158
     atom    2 type  1   force =     0.09682591   -0.01506545   -0.01655890
     atom    3 type  1   force =    -0.01152501    0.09772998   -0.01482275
     atom    4 type  1   force =    -0.00979160   -0.01146522    0.10881323

     Total force =     0.220487     Total SCF correction =     0.000555

     init_run     :      0.20s CPU      0.20s WALL (       1 calls)
     electrons    :      2.56s CPU      2.60s WALL (       1 calls)
     forces       :      0.11s CPU      0.11s WALL (       1 calls)

     Called by init_run:
     wfcinit      :      0.02s CPU      0.02s WALL (       1 calls)
     potinit      :      0.13s CPU      0.13s WALL (       1 calls)

     Called by electrons:
     c_bands      :      0.68s CPU      0.68s WALL (       9 calls)
     sum_band     :      0.21s CPU      0.22s WALL (       9 calls)
     v_of_rho     :      1.54s CPU      1.55s WALL (      10 calls)
     mix_rho      :      0.18s CPU      0.19s WALL (       9 calls)

     Called by c_bands:
     init_us_2    :      0.02s CPU      0.01s WALL (      19 calls)
     regterg      :      0.67s CPU      0.68s WALL (       9 calls)

     Called by sum_band:

     Called by *egterg:
     h_psi        :      0.65s CPU      0.64s WALL (      40 calls)
     g_psi        :      0.00s CPU      0.01s WALL (      30 calls)
     rdiaghg      :      0.01s CPU      0.00s WALL (      39 calls)

     Called by h_psi:
     h_psi:pot    :      0.65s CPU      0.64s WALL (      40 calls)
     h_psi:calbec :      0.01s CPU      0.01s WALL (      40 calls)
     vloc_psi     :      0.64s CPU      0.63s WALL (      40 calls)
     add_vuspsi   :      0.00s CPU      0.00s WALL (      40 calls)

     General routines
     calbec       :      0.01s CPU      0.01s WALL (      44 calls)
     fft          :      0.51s CPU      0.53s WALL (     111 calls)
     fftw         :      0.55s CPU      0.56s WALL (     168 calls)

     Parallel routines
     fft_scatter  :      0.23s CPU      0.25s WALL (     279 calls)

     PWSCF        :     2.87s CPU         2.92s WALL


   This run was terminated on:   0:15: 9  11Jun2017            

=------------------------------------------------------------------------------=
   JOB DONE.
=------------------------------------------------------------------------------=
