
     Program PWSCF v.6.1 (svn rev. 13369) starts on 11Jun2017 at  0:15:19 

     This program is part of the open-source Quantum ESPRESSO suite
     for quantum simulation of materials; please cite
         "P. Giannozzi et al., J. Phys.:Condens. Matter 21 395502 (2009);
          URL http://www.quantum-espresso.org", 
     in publications or presentations arising from this work. More details at
     http://www.quantum-espresso.org/quote

     Parallel version (MPI), running on     1 processors
     Waiting for input...
     Reading input from standard input

     Current dimensions of program PWSCF are:
     Max number of different atomic species (ntypx) = 10
     Max number of k-points (npk) =  40000
     Max angular momentum in pseudopotentials (lmaxx) =  3
     Message from routine iosys:
     minimal I/O required, wf_collect reset to FALSE

     gamma-point specific algorithms are used

     Subspace diagonalization in iterative solution of the eigenvalue problem:
     a serial algorithm will be used


     G-vector sticks info
     --------------------
     sticks:   dense  smooth     PW     G-vecs:    dense   smooth      PW
     Sum        3109    3109    777               129475   129475   16279



     bravais-lattice index     =            0
     lattice parameter (alat)  =      16.0000  a.u.
     unit-cell volume          =    4096.0000 (a.u.)^3
     number of atoms/cell      =            4
     number of atomic types    =            2
     number of electrons       =         8.00
     number of Kohn-Sham states=            4
     kinetic-energy cutoff     =      38.0000  Ry
     charge density cutoff     =     152.0000  Ry
     convergence threshold     =      1.0E-06
     mixing beta               =       0.7000
     number of iterations used =            8  plain     mixing
     Exchange-correlation      = PBE ( 1  4  3  4 0 0)

     celldm(1)=  16.000000  celldm(2)=   0.000000  celldm(3)=   0.000000
     celldm(4)=   0.000000  celldm(5)=   0.000000  celldm(6)=   0.000000

     crystal axes: (cart. coord. in units of alat)
               a(1) = (   1.000000   0.000000   0.000000 )  
               a(2) = (   0.000000   1.000000   0.000000 )  
               a(3) = (   0.000000   0.000000   1.000000 )  

     reciprocal axes: (cart. coord. in units 2 pi/alat)
               b(1) = (  1.000000  0.000000  0.000000 )  
               b(2) = (  0.000000  1.000000  0.000000 )  
               b(3) = (  0.000000  0.000000  1.000000 )  


     PseudoPot. # 1 for  H read from file:
     ../GTH_PBE/H.q1.gth
     MD5 check sum: 1bc203b4ccdc7556521da00b64edec72
     Pseudo is Norm-conserving, Zval =  1.0
     GTH norm-conserving PP, generated by Matthias Krack
     Using radial grid of  929 points,  1 beta functions with: 
                l(1) =   0

     PseudoPot. # 2 for  N read from file:
     ../GTH_PBE/N.q5.gth
     MD5 check sum: b363b8d5f1d7321863e01e4875e4890c
     Pseudo is Norm-conserving, Zval =  5.0
     GTH norm-conserving PP, generated by Matthias Krack
     Using radial grid of 1085 points,  1 beta functions with: 
                l(1) =   0

     atomic species   valence    mass     pseudopotential
        H              1.00     1.01000      H( 1.00)
        N              5.00    14.01000      N( 1.00)

     No symmetry found



   Cartesian axes

     site n.     atom                  positions (alat units)
         1           N   tau(   1) = (   0.4503085   0.4518267   0.4524722  )
         2           H   tau(   2) = (   0.5667983   0.4305661   0.4292002  )
         3           H   tau(   3) = (   0.4332017   0.5694339   0.4316014  )
         4           H   tau(   4) = (   0.4365324   0.4366156   0.5707998  )

     number of k points=     1
                       cart. coord. in units 2pi/alat
        k(    1) = (   0.0000000   0.0000000   0.0000000), wk =   2.0000000

     Dense  grid:    64738 G-vectors     FFT dimensions: (  64,  64,  64)

     Estimated max dynamical RAM per process >      47.89MB

     Initial potential from superposition of free atoms

     negative rho (up, down):  2.624E-08 0.000E+00
     Starting wfc are random

     total cpu time spent up to now is        0.3 secs

     per-process dynamical memory:    44.1 Mb

     Self-consistent Calculation

     iteration #  1     ecut=    38.00 Ry     beta=0.70
     Davidson diagonalization with overlap
     ethr =  1.00E-02,  avg # of iterations = 10.0

     total cpu time spent up to now is        0.9 secs

     total energy              =     -17.80279269 Ry
     Harris-Foulkes estimate   =     -25.65650306 Ry
     estimated scf accuracy    <      10.18645451 Ry

     iteration #  2     ecut=    38.00 Ry     beta=0.70
     Davidson diagonalization with overlap
     ethr =  1.00E-02,  avg # of iterations =  7.0

     total cpu time spent up to now is        1.4 secs

     total energy              =     -22.39240992 Ry
     Harris-Foulkes estimate   =     -25.86645559 Ry
     estimated scf accuracy    <       6.67330057 Ry

     iteration #  3     ecut=    38.00 Ry     beta=0.70
     Davidson diagonalization with overlap
     ethr =  1.00E-02,  avg # of iterations =  3.0

     total cpu time spent up to now is        1.8 secs

     total energy              =     -23.01148725 Ry
     Harris-Foulkes estimate   =     -23.17203059 Ry
     estimated scf accuracy    <       0.51459209 Ry

     iteration #  4     ecut=    38.00 Ry     beta=0.70
     Davidson diagonalization with overlap
     ethr =  6.43E-03,  avg # of iterations =  1.0

     total cpu time spent up to now is        2.1 secs

     total energy              =     -22.88200543 Ry
     Harris-Foulkes estimate   =     -23.01969210 Ry
     estimated scf accuracy    <       0.22372487 Ry

     iteration #  5     ecut=    38.00 Ry     beta=0.70
     Davidson diagonalization with overlap
     ethr =  2.80E-03,  avg # of iterations =  2.0

     total cpu time spent up to now is        2.5 secs

     total energy              =     -22.91482120 Ry
     Harris-Foulkes estimate   =     -22.92299324 Ry
     estimated scf accuracy    <       0.01374348 Ry

     iteration #  6     ecut=    38.00 Ry     beta=0.70
     Davidson diagonalization with overlap
     ethr =  1.72E-04,  avg # of iterations =  2.0

     total cpu time spent up to now is        2.8 secs

     total energy              =     -22.91886960 Ry
     Harris-Foulkes estimate   =     -22.91963155 Ry
     estimated scf accuracy    <       0.00175275 Ry

     iteration #  7     ecut=    38.00 Ry     beta=0.70
     Davidson diagonalization with overlap
     ethr =  2.19E-05,  avg # of iterations =  2.0

     negative rho (up, down):  2.589E-05 0.000E+00

     total cpu time spent up to now is        3.2 secs

     total energy              =     -22.91921694 Ry
     Harris-Foulkes estimate   =     -22.91918673 Ry
     estimated scf accuracy    <       0.00001317 Ry

     iteration #  8     ecut=    38.00 Ry     beta=0.70
     Davidson diagonalization with overlap
     ethr =  1.65E-07,  avg # of iterations =  3.0

     negative rho (up, down):  1.077E-05 0.000E+00

     total cpu time spent up to now is        3.6 secs

     total energy              =     -22.91921992 Ry
     Harris-Foulkes estimate   =     -22.91922692 Ry
     estimated scf accuracy    <       0.00001346 Ry

     iteration #  9     ecut=    38.00 Ry     beta=0.70
     Davidson diagonalization with overlap
     ethr =  1.65E-07,  avg # of iterations =  2.0

     total cpu time spent up to now is        3.9 secs

     End of self-consistent calculation

          k = 0.0000 0.0000 0.0000 (  8140 PWs)   bands (ev):

   -21.1584 -11.0285 -10.9959  -5.9645

     highest occupied level (ev):    -5.9645

!    total energy              =     -22.91922327 Ry
     Harris-Foulkes estimate   =     -22.91922363 Ry
     estimated scf accuracy    <       0.00000062 Ry

     The total energy is the sum of the following terms:

     one-electron contribution =     -46.09612749 Ry
     hartree contribution      =      24.05101575 Ry
     xc contribution           =      -7.12212578 Ry
     ewald contribution        =       6.24801425 Ry

     convergence has been achieved in   9 iterations

     Forces acting on atoms (cartesian axes, Ry/au):

     atom    1 type  2   force =    -0.03357499   -0.03128274   -0.03997424
     atom    2 type  1   force =     0.04118215   -0.00559033   -0.00612285
     atom    3 type  1   force =    -0.00392075    0.04163710   -0.00552314
     atom    4 type  1   force =    -0.00368641   -0.00476403    0.05162023

     Total force =     0.099745     Total SCF correction =     0.000824

     init_run     :      0.27s CPU      0.28s WALL (       1 calls)
     electrons    :      3.58s CPU      3.60s WALL (       1 calls)
     forces       :      0.15s CPU      0.15s WALL (       1 calls)

     Called by init_run:
     wfcinit      :      0.03s CPU      0.03s WALL (       1 calls)
     potinit      :      0.18s CPU      0.19s WALL (       1 calls)

     Called by electrons:
     c_bands      :      1.07s CPU      1.08s WALL (       9 calls)
     sum_band     :      0.32s CPU      0.32s WALL (       9 calls)
     v_of_rho     :      1.98s CPU      1.99s WALL (      10 calls)
     mix_rho      :      0.28s CPU      0.27s WALL (       9 calls)

     Called by c_bands:
     init_us_2    :      0.01s CPU      0.02s WALL (      19 calls)
     regterg      :      1.06s CPU      1.07s WALL (       9 calls)

     Called by sum_band:

     Called by *egterg:
     h_psi        :      1.01s CPU      1.02s WALL (      42 calls)
     g_psi        :      0.01s CPU      0.01s WALL (      32 calls)
     rdiaghg      :      0.01s CPU      0.00s WALL (      41 calls)

     Called by h_psi:
     h_psi:pot    :      1.00s CPU      1.01s WALL (      42 calls)
     h_psi:calbec :      0.02s CPU      0.01s WALL (      42 calls)
     vloc_psi     :      0.98s CPU      1.00s WALL (      42 calls)
     add_vuspsi   :      0.00s CPU      0.00s WALL (      42 calls)

     General routines
     calbec       :      0.02s CPU      0.01s WALL (      46 calls)
     fft          :      0.88s CPU      0.89s WALL (     111 calls)
     fftw         :      0.93s CPU      0.92s WALL (     174 calls)

     Parallel routines
     fft_scatter  :      0.47s CPU      0.45s WALL (     285 calls)

     PWSCF        :     4.01s CPU         4.05s WALL


   This run was terminated on:   0:15:23  11Jun2017            

=------------------------------------------------------------------------------=
   JOB DONE.
=------------------------------------------------------------------------------=
