
     Program PWSCF v.6.1 (svn rev. 13369) starts on 11Jun2017 at  0:14:58 

     This program is part of the open-source Quantum ESPRESSO suite
     for quantum simulation of materials; please cite
         "P. Giannozzi et al., J. Phys.:Condens. Matter 21 395502 (2009);
          URL http://www.quantum-espresso.org", 
     in publications or presentations arising from this work. More details at
     http://www.quantum-espresso.org/quote

     Parallel version (MPI), running on     1 processors
     Waiting for input...
     Reading input from standard input

     Current dimensions of program PWSCF are:
     Max number of different atomic species (ntypx) = 10
     Max number of k-points (npk) =  40000
     Max angular momentum in pseudopotentials (lmaxx) =  3
     Message from routine iosys:
     minimal I/O required, wf_collect reset to FALSE

     gamma-point specific algorithms are used

     Subspace diagonalization in iterative solution of the eigenvalue problem:
     a serial algorithm will be used


     G-vector sticks info
     --------------------
     sticks:   dense  smooth     PW     G-vecs:    dense   smooth      PW
     Sum        1789    1789    437                57243    57243    7123



     bravais-lattice index     =            0
     lattice parameter (alat)  =      16.0000  a.u.
     unit-cell volume          =    4096.0000 (a.u.)^3
     number of atoms/cell      =            4
     number of atomic types    =            2
     number of electrons       =         8.00
     number of Kohn-Sham states=            4
     kinetic-energy cutoff     =      22.0000  Ry
     charge density cutoff     =      88.0000  Ry
     convergence threshold     =      1.0E-06
     mixing beta               =       0.7000
     number of iterations used =            8  plain     mixing
     Exchange-correlation      = PBE ( 1  4  3  4 0 0)

     celldm(1)=  16.000000  celldm(2)=   0.000000  celldm(3)=   0.000000
     celldm(4)=   0.000000  celldm(5)=   0.000000  celldm(6)=   0.000000

     crystal axes: (cart. coord. in units of alat)
               a(1) = (   1.000000   0.000000   0.000000 )  
               a(2) = (   0.000000   1.000000   0.000000 )  
               a(3) = (   0.000000   0.000000   1.000000 )  

     reciprocal axes: (cart. coord. in units 2 pi/alat)
               b(1) = (  1.000000  0.000000  0.000000 )  
               b(2) = (  0.000000  1.000000  0.000000 )  
               b(3) = (  0.000000  0.000000  1.000000 )  


     PseudoPot. # 1 for  H read from file:
     ../GTH_PBE/H.q1.gth
     MD5 check sum: 1bc203b4ccdc7556521da00b64edec72
     Pseudo is Norm-conserving, Zval =  1.0
     GTH norm-conserving PP, generated by Matthias Krack
     Using radial grid of  929 points,  1 beta functions with: 
                l(1) =   0

     PseudoPot. # 2 for  N read from file:
     ../GTH_PBE/N.q5.gth
     MD5 check sum: b363b8d5f1d7321863e01e4875e4890c
     Pseudo is Norm-conserving, Zval =  5.0
     GTH norm-conserving PP, generated by Matthias Krack
     Using radial grid of 1085 points,  1 beta functions with: 
                l(1) =   0

     atomic species   valence    mass     pseudopotential
        H              1.00     1.01000      H( 1.00)
        N              5.00    14.01000      N( 1.00)

     No symmetry found



   Cartesian axes

     site n.     atom                  positions (alat units)
         1           N   tau(   1) = (   0.4503085   0.4518267   0.4524722  )
         2           H   tau(   2) = (   0.5667983   0.4305661   0.4292002  )
         3           H   tau(   3) = (   0.4332017   0.5694339   0.4316014  )
         4           H   tau(   4) = (   0.4365324   0.4366156   0.5707998  )

     number of k points=     1
                       cart. coord. in units 2pi/alat
        k(    1) = (   0.0000000   0.0000000   0.0000000), wk =   2.0000000

     Dense  grid:    28622 G-vectors     FFT dimensions: (  48,  48,  48)

     Estimated max dynamical RAM per process >      20.81MB

     Initial potential from superposition of free atoms

     negative rho (up, down):  7.947E-06 0.000E+00
     Starting wfc are random

     total cpu time spent up to now is        0.1 secs

     per-process dynamical memory:    22.3 Mb

     Self-consistent Calculation

     iteration #  1     ecut=    22.00 Ry     beta=0.70
     Davidson diagonalization with overlap
     ethr =  1.00E-02,  avg # of iterations =  7.0

     total cpu time spent up to now is        0.3 secs

     total energy              =     -16.91732996 Ry
     Harris-Foulkes estimate   =     -25.45044415 Ry
     estimated scf accuracy    <      11.04750168 Ry

     iteration #  2     ecut=    22.00 Ry     beta=0.70
     Davidson diagonalization with overlap
     ethr =  1.00E-02,  avg # of iterations =  5.0

     total cpu time spent up to now is        0.5 secs

     total energy              =     -21.80457996 Ry
     Harris-Foulkes estimate   =     -24.83587145 Ry
     estimated scf accuracy    <       5.68798862 Ry

     iteration #  3     ecut=    22.00 Ry     beta=0.70
     Davidson diagonalization with overlap
     ethr =  1.00E-02,  avg # of iterations =  2.0

     total cpu time spent up to now is        0.7 secs

     total energy              =     -22.18864866 Ry
     Harris-Foulkes estimate   =     -22.40861061 Ry
     estimated scf accuracy    <       0.49419260 Ry

     iteration #  4     ecut=    22.00 Ry     beta=0.70
     Davidson diagonalization with overlap
     ethr =  6.18E-03,  avg # of iterations =  1.0

     total cpu time spent up to now is        0.8 secs

     total energy              =     -22.14374074 Ry
     Harris-Foulkes estimate   =     -22.20839862 Ry
     estimated scf accuracy    <       0.11252437 Ry

     iteration #  5     ecut=    22.00 Ry     beta=0.70
     Davidson diagonalization with overlap
     ethr =  1.41E-03,  avg # of iterations =  2.0

     total cpu time spent up to now is        0.9 secs

     total energy              =     -22.16068958 Ry
     Harris-Foulkes estimate   =     -22.16497546 Ry
     estimated scf accuracy    <       0.00719955 Ry

     iteration #  6     ecut=    22.00 Ry     beta=0.70
     Davidson diagonalization with overlap
     ethr =  9.00E-05,  avg # of iterations =  2.0

     total cpu time spent up to now is        1.1 secs

     total energy              =     -22.16278344 Ry
     Harris-Foulkes estimate   =     -22.16351455 Ry
     estimated scf accuracy    <       0.00136557 Ry

     iteration #  7     ecut=    22.00 Ry     beta=0.70
     Davidson diagonalization with overlap
     ethr =  1.71E-05,  avg # of iterations =  2.0

     negative rho (up, down):  2.029E-04 0.000E+00

     total cpu time spent up to now is        1.2 secs

     total energy              =     -22.16315381 Ry
     Harris-Foulkes estimate   =     -22.16314032 Ry
     estimated scf accuracy    <       0.00003807 Ry

     iteration #  8     ecut=    22.00 Ry     beta=0.70
     Davidson diagonalization with overlap
     ethr =  4.76E-07,  avg # of iterations =  1.0

     negative rho (up, down):  4.101E-06 0.000E+00

     total cpu time spent up to now is        1.3 secs

     total energy              =     -22.16314905 Ry
     Harris-Foulkes estimate   =     -22.16315662 Ry
     estimated scf accuracy    <       0.00001825 Ry

     iteration #  9     ecut=    22.00 Ry     beta=0.70
     Davidson diagonalization with overlap
     ethr =  2.28E-07,  avg # of iterations =  2.0

     total cpu time spent up to now is        1.4 secs

     End of self-consistent calculation

          k = 0.0000 0.0000 0.0000 (  3562 PWs)   bands (ev):

   -21.5437 -10.9697 -10.9401  -5.9859

     highest occupied level (ev):    -5.9859

!    total energy              =     -22.16315141 Ry
     Harris-Foulkes estimate   =     -22.16315170 Ry
     estimated scf accuracy    <       0.00000073 Ry

     The total energy is the sum of the following terms:

     one-electron contribution =     -44.64484723 Ry
     hartree contribution      =      23.19494502 Ry
     xc contribution           =      -6.96126347 Ry
     ewald contribution        =       6.24801428 Ry

     convergence has been achieved in   9 iterations

     Forces acting on atoms (cartesian axes, Ry/au):

     atom    1 type  2   force =    -0.11526870   -0.10907052   -0.11038108
     atom    2 type  1   force =     0.14263017   -0.02047542   -0.02285247
     atom    3 type  1   force =    -0.01527991    0.14382059   -0.02010440
     atom    4 type  1   force =    -0.01208156   -0.01427466    0.15333794

     Total force =     0.322236     Total SCF correction =     0.001451

     init_run     :      0.12s CPU      0.13s WALL (       1 calls)
     electrons    :      1.27s CPU      1.29s WALL (       1 calls)
     forces       :      0.06s CPU      0.07s WALL (       1 calls)

     Called by init_run:
     wfcinit      :      0.01s CPU      0.01s WALL (       1 calls)
     potinit      :      0.09s CPU      0.10s WALL (       1 calls)

     Called by electrons:
     c_bands      :      0.29s CPU      0.30s WALL (       9 calls)
     sum_band     :      0.10s CPU      0.11s WALL (       9 calls)
     v_of_rho     :      0.81s CPU      0.82s WALL (      10 calls)
     mix_rho      :      0.10s CPU      0.10s WALL (       9 calls)

     Called by c_bands:
     init_us_2    :      0.01s CPU      0.01s WALL (      19 calls)
     regterg      :      0.29s CPU      0.29s WALL (       9 calls)

     Called by sum_band:

     Called by *egterg:
     h_psi        :      0.27s CPU      0.27s WALL (      34 calls)
     g_psi        :      0.01s CPU      0.01s WALL (      24 calls)
     rdiaghg      :      0.01s CPU      0.00s WALL (      33 calls)

     Called by h_psi:
     h_psi:pot    :      0.26s CPU      0.27s WALL (      34 calls)
     h_psi:calbec :      0.01s CPU      0.00s WALL (      34 calls)
     vloc_psi     :      0.25s CPU      0.26s WALL (      34 calls)
     add_vuspsi   :      0.00s CPU      0.00s WALL (      34 calls)

     General routines
     calbec       :      0.01s CPU      0.00s WALL (      38 calls)
     fft          :      0.24s CPU      0.27s WALL (     111 calls)
     fftw         :      0.24s CPU      0.24s WALL (     152 calls)

     Parallel routines
     fft_scatter  :      0.14s CPU      0.11s WALL (     263 calls)

     PWSCF        :     1.46s CPU         1.50s WALL


   This run was terminated on:   0:14:59  11Jun2017            

=------------------------------------------------------------------------------=
   JOB DONE.
=------------------------------------------------------------------------------=
