
     Program PWSCF v.6.1 (svn rev. 13369) starts on 11Jun2017 at  0:15:12 

     This program is part of the open-source Quantum ESPRESSO suite
     for quantum simulation of materials; please cite
         "P. Giannozzi et al., J. Phys.:Condens. Matter 21 395502 (2009);
          URL http://www.quantum-espresso.org", 
     in publications or presentations arising from this work. More details at
     http://www.quantum-espresso.org/quote

     Parallel version (MPI), running on     1 processors
     Waiting for input...
     Reading input from standard input

     Current dimensions of program PWSCF are:
     Max number of different atomic species (ntypx) = 10
     Max number of k-points (npk) =  40000
     Max angular momentum in pseudopotentials (lmaxx) =  3
     Message from routine iosys:
     minimal I/O required, wf_collect reset to FALSE

     gamma-point specific algorithms are used

     Subspace diagonalization in iterative solution of the eigenvalue problem:
     a serial algorithm will be used


     G-vector sticks info
     --------------------
     sticks:   dense  smooth     PW     G-vecs:    dense   smooth      PW
     Sum        2765    2765    681               109607   109607   13613



     bravais-lattice index     =            0
     lattice parameter (alat)  =      16.0000  a.u.
     unit-cell volume          =    4096.0000 (a.u.)^3
     number of atoms/cell      =            4
     number of atomic types    =            2
     number of electrons       =         8.00
     number of Kohn-Sham states=            4
     kinetic-energy cutoff     =      34.0000  Ry
     charge density cutoff     =     136.0000  Ry
     convergence threshold     =      1.0E-06
     mixing beta               =       0.7000
     number of iterations used =            8  plain     mixing
     Exchange-correlation      = PBE ( 1  4  3  4 0 0)

     celldm(1)=  16.000000  celldm(2)=   0.000000  celldm(3)=   0.000000
     celldm(4)=   0.000000  celldm(5)=   0.000000  celldm(6)=   0.000000

     crystal axes: (cart. coord. in units of alat)
               a(1) = (   1.000000   0.000000   0.000000 )  
               a(2) = (   0.000000   1.000000   0.000000 )  
               a(3) = (   0.000000   0.000000   1.000000 )  

     reciprocal axes: (cart. coord. in units 2 pi/alat)
               b(1) = (  1.000000  0.000000  0.000000 )  
               b(2) = (  0.000000  1.000000  0.000000 )  
               b(3) = (  0.000000  0.000000  1.000000 )  


     PseudoPot. # 1 for  H read from file:
     ../GTH_PBE/H.q1.gth
     MD5 check sum: 1bc203b4ccdc7556521da00b64edec72
     Pseudo is Norm-conserving, Zval =  1.0
     GTH norm-conserving PP, generated by Matthias Krack
     Using radial grid of  929 points,  1 beta functions with: 
                l(1) =   0

     PseudoPot. # 2 for  N read from file:
     ../GTH_PBE/N.q5.gth
     MD5 check sum: b363b8d5f1d7321863e01e4875e4890c
     Pseudo is Norm-conserving, Zval =  5.0
     GTH norm-conserving PP, generated by Matthias Krack
     Using radial grid of 1085 points,  1 beta functions with: 
                l(1) =   0

     atomic species   valence    mass     pseudopotential
        H              1.00     1.01000      H( 1.00)
        N              5.00    14.01000      N( 1.00)

     No symmetry found



   Cartesian axes

     site n.     atom                  positions (alat units)
         1           N   tau(   1) = (   0.4503085   0.4518267   0.4524722  )
         2           H   tau(   2) = (   0.5667983   0.4305661   0.4292002  )
         3           H   tau(   3) = (   0.4332017   0.5694339   0.4316014  )
         4           H   tau(   4) = (   0.4365324   0.4366156   0.5707998  )

     number of k points=     1
                       cart. coord. in units 2pi/alat
        k(    1) = (   0.0000000   0.0000000   0.0000000), wk =   2.0000000

     Dense  grid:    54804 G-vectors     FFT dimensions: (  60,  60,  60)

     Estimated max dynamical RAM per process >      40.13MB

     Initial potential from superposition of free atoms

     negative rho (up, down):  2.351E-08 0.000E+00
     Starting wfc are random

     total cpu time spent up to now is        0.2 secs

     per-process dynamical memory:    37.2 Mb

     Self-consistent Calculation

     iteration #  1     ecut=    34.00 Ry     beta=0.70
     Davidson diagonalization with overlap
     ethr =  1.00E-02,  avg # of iterations =  8.0

     total cpu time spent up to now is        0.7 secs

     total energy              =     -17.71184846 Ry
     Harris-Foulkes estimate   =     -25.61498247 Ry
     estimated scf accuracy    <      10.25421266 Ry

     iteration #  2     ecut=    34.00 Ry     beta=0.70
     Davidson diagonalization with overlap
     ethr =  1.00E-02,  avg # of iterations =  5.0

     total cpu time spent up to now is        1.0 secs

     total energy              =     -22.29989367 Ry
     Harris-Foulkes estimate   =     -25.63550285 Ry
     estimated scf accuracy    <       6.36522158 Ry

     iteration #  3     ecut=    34.00 Ry     beta=0.70
     Davidson diagonalization with overlap
     ethr =  1.00E-02,  avg # of iterations =  3.0

     total cpu time spent up to now is        1.3 secs

     total energy              =     -22.86400859 Ry
     Harris-Foulkes estimate   =     -23.03148398 Ry
     estimated scf accuracy    <       0.49509014 Ry

     iteration #  4     ecut=    34.00 Ry     beta=0.70
     Davidson diagonalization with overlap
     ethr =  6.19E-03,  avg # of iterations =  1.0

     total cpu time spent up to now is        1.6 secs

     total energy              =     -22.75569827 Ry
     Harris-Foulkes estimate   =     -22.87354478 Ry
     estimated scf accuracy    <       0.19318477 Ry

     iteration #  5     ecut=    34.00 Ry     beta=0.70
     Davidson diagonalization with overlap
     ethr =  2.41E-03,  avg # of iterations =  2.0

     total cpu time spent up to now is        1.8 secs

     total energy              =     -22.78396622 Ry
     Harris-Foulkes estimate   =     -22.79165340 Ry
     estimated scf accuracy    <       0.01269885 Ry

     iteration #  6     ecut=    34.00 Ry     beta=0.70
     Davidson diagonalization with overlap
     ethr =  1.59E-04,  avg # of iterations =  2.0

     total cpu time spent up to now is        2.1 secs

     total energy              =     -22.78771891 Ry
     Harris-Foulkes estimate   =     -22.78844011 Ry
     estimated scf accuracy    <       0.00163837 Ry

     iteration #  7     ecut=    34.00 Ry     beta=0.70
     Davidson diagonalization with overlap
     ethr =  2.05E-05,  avg # of iterations =  2.0

     negative rho (up, down):  1.405E-05 0.000E+00

     total cpu time spent up to now is        2.4 secs

     total energy              =     -22.78804614 Ry
     Harris-Foulkes estimate   =     -22.78801930 Ry
     estimated scf accuracy    <       0.00000989 Ry

     iteration #  8     ecut=    34.00 Ry     beta=0.70
     Davidson diagonalization with overlap
     ethr =  1.24E-07,  avg # of iterations =  3.0

     negative rho (up, down):  1.106E-05 0.000E+00

     total cpu time spent up to now is        2.7 secs

     total energy              =     -22.78804784 Ry
     Harris-Foulkes estimate   =     -22.78805476 Ry
     estimated scf accuracy    <       0.00001302 Ry

     iteration #  9     ecut=    34.00 Ry     beta=0.70
     Davidson diagonalization with overlap
     ethr =  1.24E-07,  avg # of iterations =  2.0

     total cpu time spent up to now is        2.9 secs

     End of self-consistent calculation

          k = 0.0000 0.0000 0.0000 (  6807 PWs)   bands (ev):

   -21.1943 -11.0370 -11.0059  -5.9690

     highest occupied level (ev):    -5.9690

!    total energy              =     -22.78805112 Ry
     Harris-Foulkes estimate   =     -22.78805147 Ry
     estimated scf accuracy    <       0.00000063 Ry

     The total energy is the sum of the following terms:

     one-electron contribution =     -45.84367120 Ry
     hartree contribution      =      23.90326075 Ry
     xc contribution           =      -7.09565490 Ry
     ewald contribution        =       6.24801424 Ry

     convergence has been achieved in   9 iterations

     Forces acting on atoms (cartesian axes, Ry/au):

     atom    1 type  2   force =    -0.05142251   -0.04836199   -0.05624491
     atom    2 type  1   force =     0.06691392   -0.01074983   -0.01162903
     atom    3 type  1   force =    -0.00826764    0.06758399   -0.01044152
     atom    4 type  1   force =    -0.00722377   -0.00847217    0.07831546

     Total force =     0.154522     Total SCF correction =     0.000816

     init_run     :      0.21s CPU      0.22s WALL (       1 calls)
     electrons    :      2.66s CPU      2.66s WALL (       1 calls)
     forces       :      0.12s CPU      0.12s WALL (       1 calls)

     Called by init_run:
     wfcinit      :      0.02s CPU      0.02s WALL (       1 calls)
     potinit      :      0.14s CPU      0.14s WALL (       1 calls)

     Called by electrons:
     c_bands      :      0.69s CPU      0.69s WALL (       9 calls)
     sum_band     :      0.23s CPU      0.22s WALL (       9 calls)
     v_of_rho     :      1.56s CPU      1.57s WALL (      10 calls)
     mix_rho      :      0.22s CPU      0.22s WALL (       9 calls)

     Called by c_bands:
     init_us_2    :      0.01s CPU      0.01s WALL (      19 calls)
     regterg      :      0.68s CPU      0.68s WALL (       9 calls)

     Called by sum_band:

     Called by *egterg:
     h_psi        :      0.64s CPU      0.64s WALL (      38 calls)
     g_psi        :      0.01s CPU      0.01s WALL (      28 calls)
     rdiaghg      :      0.00s CPU      0.00s WALL (      37 calls)

     Called by h_psi:
     h_psi:pot    :      0.64s CPU      0.63s WALL (      38 calls)
     h_psi:calbec :      0.00s CPU      0.01s WALL (      38 calls)
     vloc_psi     :      0.64s CPU      0.62s WALL (      38 calls)
     add_vuspsi   :      0.00s CPU      0.00s WALL (      38 calls)

     General routines
     calbec       :      0.00s CPU      0.01s WALL (      42 calls)
     fft          :      0.56s CPU      0.55s WALL (     111 calls)
     fftw         :      0.57s CPU      0.55s WALL (     164 calls)

     Parallel routines
     fft_scatter  :      0.25s CPU      0.26s WALL (     275 calls)

     PWSCF        :     3.00s CPU         3.01s WALL


   This run was terminated on:   0:15:15  11Jun2017            

=------------------------------------------------------------------------------=
   JOB DONE.
=------------------------------------------------------------------------------=
