
     Program PWSCF v.6.1 (svn rev. 13369) starts on 11Jun2017 at  0:15:23 

     This program is part of the open-source Quantum ESPRESSO suite
     for quantum simulation of materials; please cite
         "P. Giannozzi et al., J. Phys.:Condens. Matter 21 395502 (2009);
          URL http://www.quantum-espresso.org", 
     in publications or presentations arising from this work. More details at
     http://www.quantum-espresso.org/quote

     Parallel version (MPI), running on     1 processors
     Waiting for input...
     Reading input from standard input

     Current dimensions of program PWSCF are:
     Max number of different atomic species (ntypx) = 10
     Max number of k-points (npk) =  40000
     Max angular momentum in pseudopotentials (lmaxx) =  3
     Message from routine iosys:
     minimal I/O required, wf_collect reset to FALSE

     gamma-point specific algorithms are used

     Subspace diagonalization in iterative solution of the eigenvalue problem:
     a serial algorithm will be used


     G-vector sticks info
     --------------------
     sticks:   dense  smooth     PW     G-vecs:    dense   smooth      PW
     Sum        3265    3265    805               140089   140089   17461



     bravais-lattice index     =            0
     lattice parameter (alat)  =      16.0000  a.u.
     unit-cell volume          =    4096.0000 (a.u.)^3
     number of atoms/cell      =            4
     number of atomic types    =            2
     number of electrons       =         8.00
     number of Kohn-Sham states=            4
     kinetic-energy cutoff     =      40.0000  Ry
     charge density cutoff     =     160.0000  Ry
     convergence threshold     =      1.0E-06
     mixing beta               =       0.7000
     number of iterations used =            8  plain     mixing
     Exchange-correlation      = PBE ( 1  4  3  4 0 0)

     celldm(1)=  16.000000  celldm(2)=   0.000000  celldm(3)=   0.000000
     celldm(4)=   0.000000  celldm(5)=   0.000000  celldm(6)=   0.000000

     crystal axes: (cart. coord. in units of alat)
               a(1) = (   1.000000   0.000000   0.000000 )  
               a(2) = (   0.000000   1.000000   0.000000 )  
               a(3) = (   0.000000   0.000000   1.000000 )  

     reciprocal axes: (cart. coord. in units 2 pi/alat)
               b(1) = (  1.000000  0.000000  0.000000 )  
               b(2) = (  0.000000  1.000000  0.000000 )  
               b(3) = (  0.000000  0.000000  1.000000 )  


     PseudoPot. # 1 for  H read from file:
     ../GTH_PBE/H.q1.gth
     MD5 check sum: 1bc203b4ccdc7556521da00b64edec72
     Pseudo is Norm-conserving, Zval =  1.0
     GTH norm-conserving PP, generated by Matthias Krack
     Using radial grid of  929 points,  1 beta functions with: 
                l(1) =   0

     PseudoPot. # 2 for  N read from file:
     ../GTH_PBE/N.q5.gth
     MD5 check sum: b363b8d5f1d7321863e01e4875e4890c
     Pseudo is Norm-conserving, Zval =  5.0
     GTH norm-conserving PP, generated by Matthias Krack
     Using radial grid of 1085 points,  1 beta functions with: 
                l(1) =   0

     atomic species   valence    mass     pseudopotential
        H              1.00     1.01000      H( 1.00)
        N              5.00    14.01000      N( 1.00)

     No symmetry found



   Cartesian axes

     site n.     atom                  positions (alat units)
         1           N   tau(   1) = (   0.4503085   0.4518267   0.4524722  )
         2           H   tau(   2) = (   0.5667983   0.4305661   0.4292002  )
         3           H   tau(   3) = (   0.4332017   0.5694339   0.4316014  )
         4           H   tau(   4) = (   0.4365324   0.4366156   0.5707998  )

     number of k points=     1
                       cart. coord. in units 2pi/alat
        k(    1) = (   0.0000000   0.0000000   0.0000000), wk =   2.0000000

     Dense  grid:    70045 G-vectors     FFT dimensions: (  72,  72,  72)

     Estimated max dynamical RAM per process >      57.96MB

     Initial potential from superposition of free atoms

     negative rho (up, down):  2.761E-08 0.000E+00
     Starting wfc are random

     total cpu time spent up to now is        0.4 secs

     per-process dynamical memory:    53.0 Mb

     Self-consistent Calculation

     iteration #  1     ecut=    40.00 Ry     beta=0.70
     Davidson diagonalization with overlap
     ethr =  1.00E-02,  avg # of iterations =  9.0

     total cpu time spent up to now is        1.2 secs

     total energy              =     -17.74851645 Ry
     Harris-Foulkes estimate   =     -25.65923749 Ry
     estimated scf accuracy    <      10.25962349 Ry

     iteration #  2     ecut=    40.00 Ry     beta=0.70
     Davidson diagonalization with overlap
     ethr =  1.00E-02,  avg # of iterations =  6.0

     total cpu time spent up to now is        1.9 secs

     total energy              =     -22.43013415 Ry
     Harris-Foulkes estimate   =     -25.98624540 Ry
     estimated scf accuracy    <       6.84246308 Ry

     iteration #  3     ecut=    40.00 Ry     beta=0.70
     Davidson diagonalization with overlap
     ethr =  1.00E-02,  avg # of iterations =  3.0

     total cpu time spent up to now is        2.4 secs

     total energy              =     -23.06568326 Ry
     Harris-Foulkes estimate   =     -23.22717605 Ry
     estimated scf accuracy    <       0.53020823 Ry

     iteration #  4     ecut=    40.00 Ry     beta=0.70
     Davidson diagonalization with overlap
     ethr =  6.63E-03,  avg # of iterations =  1.0

     total cpu time spent up to now is        2.9 secs

     total energy              =     -22.92565448 Ry
     Harris-Foulkes estimate   =     -23.07367374 Ry
     estimated scf accuracy    <       0.23827312 Ry

     iteration #  5     ecut=    40.00 Ry     beta=0.70
     Davidson diagonalization with overlap
     ethr =  2.98E-03,  avg # of iterations =  2.0

     total cpu time spent up to now is        3.3 secs

     total energy              =     -22.96089433 Ry
     Harris-Foulkes estimate   =     -22.96957037 Ry
     estimated scf accuracy    <       0.01462532 Ry

     iteration #  6     ecut=    40.00 Ry     beta=0.70
     Davidson diagonalization with overlap
     ethr =  1.83E-04,  avg # of iterations =  2.0

     total cpu time spent up to now is        3.8 secs

     total energy              =     -22.96521096 Ry
     Harris-Foulkes estimate   =     -22.96604566 Ry
     estimated scf accuracy    <       0.00191561 Ry

     iteration #  7     ecut=    40.00 Ry     beta=0.70
     Davidson diagonalization with overlap
     ethr =  2.39E-05,  avg # of iterations =  2.0

     negative rho (up, down):  2.094E-05 0.000E+00

     total cpu time spent up to now is        4.3 secs

     total energy              =     -22.96558241 Ry
     Harris-Foulkes estimate   =     -22.96555055 Ry
     estimated scf accuracy    <       0.00001723 Ry

     iteration #  8     ecut=    40.00 Ry     beta=0.70
     Davidson diagonalization with overlap
     ethr =  2.15E-07,  avg # of iterations =  3.0

     negative rho (up, down):  1.558E-05 0.000E+00

     total cpu time spent up to now is        4.8 secs

     total energy              =     -22.96558722 Ry
     Harris-Foulkes estimate   =     -22.96559437 Ry
     estimated scf accuracy    <       0.00001343 Ry

     iteration #  9     ecut=    40.00 Ry     beta=0.70
     Davidson diagonalization with overlap
     ethr =  1.68E-07,  avg # of iterations =  2.0

     total cpu time spent up to now is        5.2 secs

     End of self-consistent calculation

          k = 0.0000 0.0000 0.0000 (  8731 PWs)   bands (ev):

   -21.1499 -11.0226 -10.9908  -5.9653

     highest occupied level (ev):    -5.9653

!    total energy              =     -22.96559060 Ry
     Harris-Foulkes estimate   =     -22.96559116 Ry
     estimated scf accuracy    <       0.00000084 Ry

     The total energy is the sum of the following terms:

     one-electron contribution =     -46.18630369 Ry
     hartree contribution      =      24.10411322 Ry
     xc contribution           =      -7.13141438 Ry
     ewald contribution        =       6.24801425 Ry

     convergence has been achieved in   9 iterations

     Forces acting on atoms (cartesian axes, Ry/au):

     atom    1 type  2   force =    -0.02589308   -0.02413809   -0.03274778
     atom    2 type  1   force =     0.03281247   -0.00486579   -0.00515124
     atom    3 type  1   force =    -0.00356792    0.03314022   -0.00460675
     atom    4 type  1   force =    -0.00335147   -0.00413634    0.04250577

     Total force =     0.080123     Total SCF correction =     0.000999

     init_run     :      0.33s CPU      0.35s WALL (       1 calls)
     electrons    :      4.82s CPU      4.85s WALL (       1 calls)
     forces       :      0.16s CPU      0.16s WALL (       1 calls)

     Called by init_run:
     wfcinit      :      0.04s CPU      0.04s WALL (       1 calls)
     potinit      :      0.22s CPU      0.24s WALL (       1 calls)

     Called by electrons:
     c_bands      :      1.38s CPU      1.38s WALL (       9 calls)
     sum_band     :      0.41s CPU      0.42s WALL (       9 calls)
     v_of_rho     :      2.79s CPU      2.82s WALL (      10 calls)
     mix_rho      :      0.32s CPU      0.32s WALL (       9 calls)

     Called by c_bands:
     init_us_2    :      0.02s CPU      0.02s WALL (      19 calls)
     regterg      :      1.37s CPU      1.37s WALL (       9 calls)

     Called by sum_band:

     Called by *egterg:
     h_psi        :      1.31s CPU      1.32s WALL (      40 calls)
     g_psi        :      0.02s CPU      0.01s WALL (      30 calls)
     rdiaghg      :      0.00s CPU      0.00s WALL (      39 calls)

     Called by h_psi:
     h_psi:pot    :      1.30s CPU      1.31s WALL (      40 calls)
     h_psi:calbec :      0.02s CPU      0.01s WALL (      40 calls)
     vloc_psi     :      1.29s CPU      1.30s WALL (      40 calls)
     add_vuspsi   :      0.00s CPU      0.00s WALL (      40 calls)

     General routines
     calbec       :      0.02s CPU      0.01s WALL (      44 calls)
     fft          :      1.01s CPU      1.10s WALL (     111 calls)
     fftw         :      1.14s CPU      1.20s WALL (     170 calls)

     Parallel routines
     fft_scatter  :      0.48s CPU      0.45s WALL (     281 calls)

     PWSCF        :     5.32s CPU         5.38s WALL


   This run was terminated on:   0:15:28  11Jun2017            

=------------------------------------------------------------------------------=
   JOB DONE.
=------------------------------------------------------------------------------=
