
     Program PWSCF v.6.1 (svn rev. 13369) starts on 11Jun2017 at  0:15: 3 

     This program is part of the open-source Quantum ESPRESSO suite
     for quantum simulation of materials; please cite
         "P. Giannozzi et al., J. Phys.:Condens. Matter 21 395502 (2009);
          URL http://www.quantum-espresso.org", 
     in publications or presentations arising from this work. More details at
     http://www.quantum-espresso.org/quote

     Parallel version (MPI), running on     1 processors
     Waiting for input...
     Reading input from standard input

     Current dimensions of program PWSCF are:
     Max number of different atomic species (ntypx) = 10
     Max number of k-points (npk) =  40000
     Max angular momentum in pseudopotentials (lmaxx) =  3
     Message from routine iosys:
     minimal I/O required, wf_collect reset to FALSE

     gamma-point specific algorithms are used

     Subspace diagonalization in iterative solution of the eigenvalue problem:
     a serial algorithm will be used


     G-vector sticks info
     --------------------
     sticks:   dense  smooth     PW     G-vecs:    dense   smooth      PW
     Sum        2285    2285    577                82057    82057   10251



     bravais-lattice index     =            0
     lattice parameter (alat)  =      16.0000  a.u.
     unit-cell volume          =    4096.0000 (a.u.)^3
     number of atoms/cell      =            4
     number of atomic types    =            2
     number of electrons       =         8.00
     number of Kohn-Sham states=            4
     kinetic-energy cutoff     =      28.0000  Ry
     charge density cutoff     =     112.0000  Ry
     convergence threshold     =      1.0E-06
     mixing beta               =       0.7000
     number of iterations used =            8  plain     mixing
     Exchange-correlation      = PBE ( 1  4  3  4 0 0)

     celldm(1)=  16.000000  celldm(2)=   0.000000  celldm(3)=   0.000000
     celldm(4)=   0.000000  celldm(5)=   0.000000  celldm(6)=   0.000000

     crystal axes: (cart. coord. in units of alat)
               a(1) = (   1.000000   0.000000   0.000000 )  
               a(2) = (   0.000000   1.000000   0.000000 )  
               a(3) = (   0.000000   0.000000   1.000000 )  

     reciprocal axes: (cart. coord. in units 2 pi/alat)
               b(1) = (  1.000000  0.000000  0.000000 )  
               b(2) = (  0.000000  1.000000  0.000000 )  
               b(3) = (  0.000000  0.000000  1.000000 )  


     PseudoPot. # 1 for  H read from file:
     ../GTH_PBE/H.q1.gth
     MD5 check sum: 1bc203b4ccdc7556521da00b64edec72
     Pseudo is Norm-conserving, Zval =  1.0
     GTH norm-conserving PP, generated by Matthias Krack
     Using radial grid of  929 points,  1 beta functions with: 
                l(1) =   0

     PseudoPot. # 2 for  N read from file:
     ../GTH_PBE/N.q5.gth
     MD5 check sum: b363b8d5f1d7321863e01e4875e4890c
     Pseudo is Norm-conserving, Zval =  5.0
     GTH norm-conserving PP, generated by Matthias Krack
     Using radial grid of 1085 points,  1 beta functions with: 
                l(1) =   0

     atomic species   valence    mass     pseudopotential
        H              1.00     1.01000      H( 1.00)
        N              5.00    14.01000      N( 1.00)

     No symmetry found



   Cartesian axes

     site n.     atom                  positions (alat units)
         1           N   tau(   1) = (   0.4503085   0.4518267   0.4524722  )
         2           H   tau(   2) = (   0.5667983   0.4305661   0.4292002  )
         3           H   tau(   3) = (   0.4332017   0.5694339   0.4316014  )
         4           H   tau(   4) = (   0.4365324   0.4366156   0.5707998  )

     number of k points=     1
                       cart. coord. in units 2pi/alat
        k(    1) = (   0.0000000   0.0000000   0.0000000), wk =   2.0000000

     Dense  grid:    41029 G-vectors     FFT dimensions: (  54,  54,  54)

     Estimated max dynamical RAM per process >      29.75MB

     Initial potential from superposition of free atoms

     negative rho (up, down):  1.120E-07 0.000E+00
     Starting wfc are random

     total cpu time spent up to now is        0.2 secs

     per-process dynamical memory:    28.4 Mb

     Self-consistent Calculation

     iteration #  1     ecut=    28.00 Ry     beta=0.70
     Davidson diagonalization with overlap
     ethr =  1.00E-02,  avg # of iterations = 10.0

     total cpu time spent up to now is        0.5 secs

     total energy              =     -17.38536502 Ry
     Harris-Foulkes estimate   =     -25.54894233 Ry
     estimated scf accuracy    <      10.58743703 Ry

     iteration #  2     ecut=    28.00 Ry     beta=0.70
     Davidson diagonalization with overlap
     ethr =  1.00E-02,  avg # of iterations =  5.0

     total cpu time spent up to now is        0.8 secs

     total energy              =     -22.09739360 Ry
     Harris-Foulkes estimate   =     -25.31593099 Ry
     estimated scf accuracy    <       6.09575299 Ry

     iteration #  3     ecut=    28.00 Ry     beta=0.70
     Davidson diagonalization with overlap
     ethr =  1.00E-02,  avg # of iterations =  2.0

     total cpu time spent up to now is        1.0 secs

     total energy              =     -22.59243613 Ry
     Harris-Foulkes estimate   =     -22.77882007 Ry
     estimated scf accuracy    <       0.49191713 Ry

     iteration #  4     ecut=    28.00 Ry     beta=0.70
     Davidson diagonalization with overlap
     ethr =  6.15E-03,  avg # of iterations =  1.0

     total cpu time spent up to now is        1.2 secs

     total energy              =     -22.51094444 Ry
     Harris-Foulkes estimate   =     -22.60626287 Ry
     estimated scf accuracy    <       0.16105497 Ry

     iteration #  5     ecut=    28.00 Ry     beta=0.70
     Davidson diagonalization with overlap
     ethr =  2.01E-03,  avg # of iterations =  2.0

     total cpu time spent up to now is        1.4 secs

     total energy              =     -22.53567502 Ry
     Harris-Foulkes estimate   =     -22.54030431 Ry
     estimated scf accuracy    <       0.00877386 Ry

     iteration #  6     ecut=    28.00 Ry     beta=0.70
     Davidson diagonalization with overlap
     ethr =  1.10E-04,  avg # of iterations =  2.0

     total cpu time spent up to now is        1.6 secs

     total energy              =     -22.53803852 Ry
     Harris-Foulkes estimate   =     -22.53835277 Ry
     estimated scf accuracy    <       0.00064692 Ry

     iteration #  7     ecut=    28.00 Ry     beta=0.70
     Davidson diagonalization with overlap
     ethr =  8.09E-06,  avg # of iterations =  2.0

     negative rho (up, down):  2.921E-04 0.000E+00

     total cpu time spent up to now is        1.8 secs

     total energy              =     -22.53825473 Ry
     Harris-Foulkes estimate   =     -22.53822153 Ry
     estimated scf accuracy    <       0.00002388 Ry

     iteration #  8     ecut=    28.00 Ry     beta=0.70
     Davidson diagonalization with overlap
     ethr =  2.98E-07,  avg # of iterations =  2.0

     negative rho (up, down):  2.848E-06 0.000E+00

     total cpu time spent up to now is        2.0 secs

     total energy              =     -22.53824708 Ry
     Harris-Foulkes estimate   =     -22.53825680 Ry
     estimated scf accuracy    <       0.00002024 Ry

     iteration #  9     ecut=    28.00 Ry     beta=0.70
     Davidson diagonalization with overlap
     ethr =  2.53E-07,  avg # of iterations =  2.0

     total cpu time spent up to now is        2.2 secs

     total energy              =     -22.53824881 Ry
     Harris-Foulkes estimate   =     -22.53824924 Ry
     estimated scf accuracy    <       0.00000107 Ry

     iteration # 10     ecut=    28.00 Ry     beta=0.70
     Davidson diagonalization with overlap
     ethr =  1.34E-08,  avg # of iterations =  2.0

     total cpu time spent up to now is        2.4 secs

     End of self-consistent calculation

          k = 0.0000 0.0000 0.0000 (  5126 PWs)   bands (ev):

   -21.2899 -11.0306 -11.0007  -5.9776

     highest occupied level (ev):    -5.9776

!    total energy              =     -22.53824924 Ry
     Harris-Foulkes estimate   =     -22.53824928 Ry
     estimated scf accuracy    <       0.00000008 Ry

     The total energy is the sum of the following terms:

     one-electron contribution =     -45.36491232 Ry
     hartree contribution      =      23.62195588 Ry
     xc contribution           =      -7.04330704 Ry
     ewald contribution        =       6.24801424 Ry

     convergence has been achieved in  10 iterations

     Forces acting on atoms (cartesian axes, Ry/au):

     atom    1 type  2   force =    -0.08482668   -0.08056308   -0.08599289
     atom    2 type  1   force =     0.11064645   -0.01782636   -0.01951670
     atom    3 type  1   force =    -0.01399185    0.11194440   -0.01758052
     atom    4 type  1   force =    -0.01182792   -0.01355496    0.12309011

     Total force =     0.250067     Total SCF correction =     0.000292

     init_run     :      0.16s CPU      0.18s WALL (       1 calls)
     electrons    :      2.15s CPU      2.17s WALL (       1 calls)
     forces       :      0.09s CPU      0.10s WALL (       1 calls)

     Called by init_run:
     wfcinit      :      0.02s CPU      0.02s WALL (       1 calls)
     potinit      :      0.11s CPU      0.12s WALL (       1 calls)

     Called by electrons:
     c_bands      :      0.54s CPU      0.54s WALL (      10 calls)
     sum_band     :      0.18s CPU      0.19s WALL (      10 calls)
     v_of_rho     :      1.28s CPU      1.29s WALL (      11 calls)
     mix_rho      :      0.18s CPU      0.19s WALL (      10 calls)

     Called by c_bands:
     init_us_2    :      0.01s CPU      0.01s WALL (      21 calls)
     regterg      :      0.53s CPU      0.53s WALL (      10 calls)

     Called by sum_band:

     Called by *egterg:
     h_psi        :      0.50s CPU      0.50s WALL (      41 calls)
     g_psi        :      0.01s CPU      0.01s WALL (      30 calls)
     rdiaghg      :      0.01s CPU      0.00s WALL (      40 calls)

     Called by h_psi:
     h_psi:pot    :      0.50s CPU      0.50s WALL (      41 calls)
     h_psi:calbec :      0.01s CPU      0.01s WALL (      41 calls)
     vloc_psi     :      0.48s CPU      0.49s WALL (      41 calls)
     add_vuspsi   :      0.00s CPU      0.00s WALL (      41 calls)

     General routines
     calbec       :      0.01s CPU      0.01s WALL (      45 calls)
     fft          :      0.47s CPU      0.48s WALL (     122 calls)
     fftw         :      0.46s CPU      0.45s WALL (     170 calls)

     Parallel routines
     fft_scatter  :      0.19s CPU      0.19s WALL (     292 calls)

     PWSCF        :     2.40s CPU         2.46s WALL


   This run was terminated on:   0:15: 6  11Jun2017            

=------------------------------------------------------------------------------=
   JOB DONE.
=------------------------------------------------------------------------------=
