
     Program PWSCF v.6.1 (svn rev. 13369) starts on 11Jun2017 at  0:14:59 

     This program is part of the open-source Quantum ESPRESSO suite
     for quantum simulation of materials; please cite
         "P. Giannozzi et al., J. Phys.:Condens. Matter 21 395502 (2009);
          URL http://www.quantum-espresso.org", 
     in publications or presentations arising from this work. More details at
     http://www.quantum-espresso.org/quote

     Parallel version (MPI), running on     1 processors
     Waiting for input...
     Reading input from standard input

     Current dimensions of program PWSCF are:
     Max number of different atomic species (ntypx) = 10
     Max number of k-points (npk) =  40000
     Max angular momentum in pseudopotentials (lmaxx) =  3
     Message from routine iosys:
     minimal I/O required, wf_collect reset to FALSE

     gamma-point specific algorithms are used

     Subspace diagonalization in iterative solution of the eigenvalue problem:
     a serial algorithm will be used


     G-vector sticks info
     --------------------
     sticks:   dense  smooth     PW     G-vecs:    dense   smooth      PW
     Sum        1941    1941    489                65117    65117    8217



     bravais-lattice index     =            0
     lattice parameter (alat)  =      16.0000  a.u.
     unit-cell volume          =    4096.0000 (a.u.)^3
     number of atoms/cell      =            4
     number of atomic types    =            2
     number of electrons       =         8.00
     number of Kohn-Sham states=            4
     kinetic-energy cutoff     =      24.0000  Ry
     charge density cutoff     =      96.0000  Ry
     convergence threshold     =      1.0E-06
     mixing beta               =       0.7000
     number of iterations used =            8  plain     mixing
     Exchange-correlation      = PBE ( 1  4  3  4 0 0)

     celldm(1)=  16.000000  celldm(2)=   0.000000  celldm(3)=   0.000000
     celldm(4)=   0.000000  celldm(5)=   0.000000  celldm(6)=   0.000000

     crystal axes: (cart. coord. in units of alat)
               a(1) = (   1.000000   0.000000   0.000000 )  
               a(2) = (   0.000000   1.000000   0.000000 )  
               a(3) = (   0.000000   0.000000   1.000000 )  

     reciprocal axes: (cart. coord. in units 2 pi/alat)
               b(1) = (  1.000000  0.000000  0.000000 )  
               b(2) = (  0.000000  1.000000  0.000000 )  
               b(3) = (  0.000000  0.000000  1.000000 )  


     PseudoPot. # 1 for  H read from file:
     ../GTH_PBE/H.q1.gth
     MD5 check sum: 1bc203b4ccdc7556521da00b64edec72
     Pseudo is Norm-conserving, Zval =  1.0
     GTH norm-conserving PP, generated by Matthias Krack
     Using radial grid of  929 points,  1 beta functions with: 
                l(1) =   0

     PseudoPot. # 2 for  N read from file:
     ../GTH_PBE/N.q5.gth
     MD5 check sum: b363b8d5f1d7321863e01e4875e4890c
     Pseudo is Norm-conserving, Zval =  5.0
     GTH norm-conserving PP, generated by Matthias Krack
     Using radial grid of 1085 points,  1 beta functions with: 
                l(1) =   0

     atomic species   valence    mass     pseudopotential
        H              1.00     1.01000      H( 1.00)
        N              5.00    14.01000      N( 1.00)

     No symmetry found



   Cartesian axes

     site n.     atom                  positions (alat units)
         1           N   tau(   1) = (   0.4503085   0.4518267   0.4524722  )
         2           H   tau(   2) = (   0.5667983   0.4305661   0.4292002  )
         3           H   tau(   3) = (   0.4332017   0.5694339   0.4316014  )
         4           H   tau(   4) = (   0.4365324   0.4366156   0.5707998  )

     number of k points=     1
                       cart. coord. in units 2pi/alat
        k(    1) = (   0.0000000   0.0000000   0.0000000), wk =   2.0000000

     Dense  grid:    32559 G-vectors     FFT dimensions: (  50,  50,  50)

     Estimated max dynamical RAM per process >      23.61MB

     Initial potential from superposition of free atoms

     negative rho (up, down):  1.955E-06 0.000E+00
     Starting wfc are random

     total cpu time spent up to now is        0.2 secs

     per-process dynamical memory:    23.3 Mb

     Self-consistent Calculation

     iteration #  1     ecut=    24.00 Ry     beta=0.70
     Davidson diagonalization with overlap
     ethr =  1.00E-02,  avg # of iterations =  8.0

     total cpu time spent up to now is        0.4 secs

     total energy              =     -17.18926275 Ry
     Harris-Foulkes estimate   =     -25.49793725 Ry
     estimated scf accuracy    <      10.76184614 Ry

     iteration #  2     ecut=    24.00 Ry     beta=0.70
     Davidson diagonalization with overlap
     ethr =  1.00E-02,  avg # of iterations =  5.0

     total cpu time spent up to now is        0.6 secs

     total energy              =     -21.92401761 Ry
     Harris-Foulkes estimate   =     -24.99442836 Ry
     estimated scf accuracy    <       5.77996361 Ry

     iteration #  3     ecut=    24.00 Ry     beta=0.70
     Davidson diagonalization with overlap
     ethr =  1.00E-02,  avg # of iterations =  2.0

     total cpu time spent up to now is        0.8 secs

     total energy              =     -22.35141702 Ry
     Harris-Foulkes estimate   =     -22.55438547 Ry
     estimated scf accuracy    <       0.48469152 Ry

     iteration #  4     ecut=    24.00 Ry     beta=0.70
     Davidson diagonalization with overlap
     ethr =  6.06E-03,  avg # of iterations =  1.0

     total cpu time spent up to now is        0.9 secs

     total energy              =     -22.29393984 Ry
     Harris-Foulkes estimate   =     -22.36820884 Ry
     estimated scf accuracy    <       0.12831858 Ry

     iteration #  5     ecut=    24.00 Ry     beta=0.70
     Davidson diagonalization with overlap
     ethr =  1.60E-03,  avg # of iterations =  2.0

     total cpu time spent up to now is        1.1 secs

     total energy              =     -22.31317741 Ry
     Harris-Foulkes estimate   =     -22.31743980 Ry
     estimated scf accuracy    <       0.00748295 Ry

     iteration #  6     ecut=    24.00 Ry     beta=0.70
     Davidson diagonalization with overlap
     ethr =  9.35E-05,  avg # of iterations =  2.0

     total cpu time spent up to now is        1.2 secs

     total energy              =     -22.31531669 Ry
     Harris-Foulkes estimate   =     -22.31591106 Ry
     estimated scf accuracy    <       0.00111736 Ry

     iteration #  7     ecut=    24.00 Ry     beta=0.70
     Davidson diagonalization with overlap
     ethr =  1.40E-05,  avg # of iterations =  2.0

     negative rho (up, down):  2.548E-04 0.000E+00

     total cpu time spent up to now is        1.4 secs

     total energy              =     -22.31563535 Ry
     Harris-Foulkes estimate   =     -22.31561573 Ry
     estimated scf accuracy    <       0.00003479 Ry

     iteration #  8     ecut=    24.00 Ry     beta=0.70
     Davidson diagonalization with overlap
     ethr =  4.35E-07,  avg # of iterations =  1.0

     negative rho (up, down):  7.277E-06 0.000E+00

     total cpu time spent up to now is        1.5 secs

     total energy              =     -22.31563027 Ry
     Harris-Foulkes estimate   =     -22.31563783 Ry
     estimated scf accuracy    <       0.00001774 Ry

     iteration #  9     ecut=    24.00 Ry     beta=0.70
     Davidson diagonalization with overlap
     ethr =  2.22E-07,  avg # of iterations =  2.0

     total cpu time spent up to now is        1.7 secs

     total energy              =     -22.31563209 Ry
     Harris-Foulkes estimate   =     -22.31563240 Ry
     estimated scf accuracy    <       0.00000133 Ry

     iteration # 10     ecut=    24.00 Ry     beta=0.70
     Davidson diagonalization with overlap
     ethr =  1.67E-08,  avg # of iterations =  2.0

     total cpu time spent up to now is        1.8 secs

     End of self-consistent calculation

          k = 0.0000 0.0000 0.0000 (  4109 PWs)   bands (ev):

   -21.4208 -11.0021 -10.9735  -5.9846

     highest occupied level (ev):    -5.9846

!    total energy              =     -22.31563245 Ry
     Harris-Foulkes estimate   =     -22.31563245 Ry
     estimated scf accuracy    <       0.00000006 Ry

     The total energy is the sum of the following terms:

     one-electron contribution =     -44.93921787 Ry
     hartree contribution      =      23.37078570 Ry
     xc contribution           =      -6.99521456 Ry
     ewald contribution        =       6.24801428 Ry

     convergence has been achieved in  10 iterations

     Forces acting on atoms (cartesian axes, Ry/au):

     atom    1 type  2   force =    -0.10507293   -0.09979480   -0.10283935
     atom    2 type  1   force =     0.13408895   -0.02083680   -0.02298677
     atom    3 type  1   force =    -0.01600988    0.13567127   -0.02042829
     atom    4 type  1   force =    -0.01300613   -0.01503967    0.14625441

     Total force =     0.302297     Total SCF correction =     0.000692

     init_run     :      0.15s CPU      0.15s WALL (       1 calls)
     electrons    :      1.65s CPU      1.66s WALL (       1 calls)
     forces       :      0.08s CPU      0.08s WALL (       1 calls)

     Called by init_run:
     wfcinit      :      0.01s CPU      0.01s WALL (       1 calls)
     potinit      :      0.11s CPU      0.11s WALL (       1 calls)

     Called by electrons:
     c_bands      :      0.40s CPU      0.40s WALL (      10 calls)
     sum_band     :      0.13s CPU      0.14s WALL (      10 calls)
     v_of_rho     :      1.02s CPU      1.02s WALL (      11 calls)
     mix_rho      :      0.14s CPU      0.15s WALL (      10 calls)

     Called by c_bands:
     init_us_2    :      0.02s CPU      0.01s WALL (      21 calls)
     regterg      :      0.38s CPU      0.39s WALL (      10 calls)

     Called by sum_band:

     Called by *egterg:
     h_psi        :      0.36s CPU      0.36s WALL (      38 calls)
     g_psi        :      0.01s CPU      0.01s WALL (      27 calls)
     rdiaghg      :      0.00s CPU      0.00s WALL (      37 calls)

     Called by h_psi:
     h_psi:pot    :      0.36s CPU      0.36s WALL (      38 calls)
     h_psi:calbec :      0.01s CPU      0.00s WALL (      38 calls)
     vloc_psi     :      0.34s CPU      0.35s WALL (      38 calls)
     add_vuspsi   :      0.00s CPU      0.00s WALL (      38 calls)

     General routines
     calbec       :      0.01s CPU      0.00s WALL (      42 calls)
     fft          :      0.38s CPU      0.36s WALL (     122 calls)
     fftw         :      0.33s CPU      0.33s WALL (     166 calls)

     Parallel routines
     fft_scatter  :      0.14s CPU      0.13s WALL (     288 calls)

     PWSCF        :     1.88s CPU         1.90s WALL


   This run was terminated on:   0:15: 1  11Jun2017            

=------------------------------------------------------------------------------=
   JOB DONE.
=------------------------------------------------------------------------------=
