
     Program PWSCF v.6.1 (svn rev. 13369) starts on 11Jun2017 at  0:15:15 

     This program is part of the open-source Quantum ESPRESSO suite
     for quantum simulation of materials; please cite
         "P. Giannozzi et al., J. Phys.:Condens. Matter 21 395502 (2009);
          URL http://www.quantum-espresso.org", 
     in publications or presentations arising from this work. More details at
     http://www.quantum-espresso.org/quote

     Parallel version (MPI), running on     1 processors
     Waiting for input...
     Reading input from standard input

     Current dimensions of program PWSCF are:
     Max number of different atomic species (ntypx) = 10
     Max number of k-points (npk) =  40000
     Max angular momentum in pseudopotentials (lmaxx) =  3
     Message from routine iosys:
     minimal I/O required, wf_collect reset to FALSE

     gamma-point specific algorithms are used

     Subspace diagonalization in iterative solution of the eigenvalue problem:
     a serial algorithm will be used


     G-vector sticks info
     --------------------
     sticks:   dense  smooth     PW     G-vecs:    dense   smooth      PW
     Sum        2941    2941    741               119513   119513   14939



     bravais-lattice index     =            0
     lattice parameter (alat)  =      16.0000  a.u.
     unit-cell volume          =    4096.0000 (a.u.)^3
     number of atoms/cell      =            4
     number of atomic types    =            2
     number of electrons       =         8.00
     number of Kohn-Sham states=            4
     kinetic-energy cutoff     =      36.0000  Ry
     charge density cutoff     =     144.0000  Ry
     convergence threshold     =      1.0E-06
     mixing beta               =       0.7000
     number of iterations used =            8  plain     mixing
     Exchange-correlation      = PBE ( 1  4  3  4 0 0)

     celldm(1)=  16.000000  celldm(2)=   0.000000  celldm(3)=   0.000000
     celldm(4)=   0.000000  celldm(5)=   0.000000  celldm(6)=   0.000000

     crystal axes: (cart. coord. in units of alat)
               a(1) = (   1.000000   0.000000   0.000000 )  
               a(2) = (   0.000000   1.000000   0.000000 )  
               a(3) = (   0.000000   0.000000   1.000000 )  

     reciprocal axes: (cart. coord. in units 2 pi/alat)
               b(1) = (  1.000000  0.000000  0.000000 )  
               b(2) = (  0.000000  1.000000  0.000000 )  
               b(3) = (  0.000000  0.000000  1.000000 )  


     PseudoPot. # 1 for  H read from file:
     ../GTH_PBE/H.q1.gth
     MD5 check sum: 1bc203b4ccdc7556521da00b64edec72
     Pseudo is Norm-conserving, Zval =  1.0
     GTH norm-conserving PP, generated by Matthias Krack
     Using radial grid of  929 points,  1 beta functions with: 
                l(1) =   0

     PseudoPot. # 2 for  N read from file:
     ../GTH_PBE/N.q5.gth
     MD5 check sum: b363b8d5f1d7321863e01e4875e4890c
     Pseudo is Norm-conserving, Zval =  5.0
     GTH norm-conserving PP, generated by Matthias Krack
     Using radial grid of 1085 points,  1 beta functions with: 
                l(1) =   0

     atomic species   valence    mass     pseudopotential
        H              1.00     1.01000      H( 1.00)
        N              5.00    14.01000      N( 1.00)

     No symmetry found



   Cartesian axes

     site n.     atom                  positions (alat units)
         1           N   tau(   1) = (   0.4503085   0.4518267   0.4524722  )
         2           H   tau(   2) = (   0.5667983   0.4305661   0.4292002  )
         3           H   tau(   3) = (   0.4332017   0.5694339   0.4316014  )
         4           H   tau(   4) = (   0.4365324   0.4366156   0.5707998  )

     number of k points=     1
                       cart. coord. in units 2pi/alat
        k(    1) = (   0.0000000   0.0000000   0.0000000), wk =   2.0000000

     Dense  grid:    59757 G-vectors     FFT dimensions: (  64,  64,  64)

     Estimated max dynamical RAM per process >      45.59MB

     Initial potential from superposition of free atoms

     negative rho (up, down):  2.461E-08 0.000E+00
     Starting wfc are random

     total cpu time spent up to now is        0.3 secs

     per-process dynamical memory:    43.2 Mb

     Self-consistent Calculation

     iteration #  1     ecut=    36.00 Ry     beta=0.70
     Davidson diagonalization with overlap
     ethr =  1.00E-02,  avg # of iterations =  8.0

     total cpu time spent up to now is        0.9 secs

     total energy              =     -17.68259272 Ry
     Harris-Foulkes estimate   =     -25.63452808 Ry
     estimated scf accuracy    <      10.31326782 Ry

     iteration #  2     ecut=    36.00 Ry     beta=0.70
     Davidson diagonalization with overlap
     ethr =  1.00E-02,  avg # of iterations =  6.0

     total cpu time spent up to now is        1.4 secs

     total energy              =     -22.34377092 Ry
     Harris-Foulkes estimate   =     -25.80841556 Ry
     estimated scf accuracy    <       6.64138624 Ry

     iteration #  3     ecut=    36.00 Ry     beta=0.70
     Davidson diagonalization with overlap
     ethr =  1.00E-02,  avg # of iterations =  3.0

     total cpu time spent up to now is        1.8 secs

     total energy              =     -22.94727801 Ry
     Harris-Foulkes estimate   =     -23.11339214 Ry
     estimated scf accuracy    <       0.51849558 Ry

     iteration #  4     ecut=    36.00 Ry     beta=0.70
     Davidson diagonalization with overlap
     ethr =  6.48E-03,  avg # of iterations =  1.0

     total cpu time spent up to now is        2.1 secs

     total energy              =     -22.82195937 Ry
     Harris-Foulkes estimate   =     -22.95609009 Ry
     estimated scf accuracy    <       0.21808030 Ry

     iteration #  5     ecut=    36.00 Ry     beta=0.70
     Davidson diagonalization with overlap
     ethr =  2.73E-03,  avg # of iterations =  2.0

     total cpu time spent up to now is        2.5 secs

     total energy              =     -22.85406566 Ry
     Harris-Foulkes estimate   =     -22.86217932 Ry
     estimated scf accuracy    <       0.01351533 Ry

     iteration #  6     ecut=    36.00 Ry     beta=0.70
     Davidson diagonalization with overlap
     ethr =  1.69E-04,  avg # of iterations =  2.0

     total cpu time spent up to now is        2.8 secs

     total energy              =     -22.85807144 Ry
     Harris-Foulkes estimate   =     -22.85888273 Ry
     estimated scf accuracy    <       0.00183734 Ry

     iteration #  7     ecut=    36.00 Ry     beta=0.70
     Davidson diagonalization with overlap
     ethr =  2.30E-05,  avg # of iterations =  2.0

     negative rho (up, down):  9.912E-06 0.000E+00

     total cpu time spent up to now is        3.2 secs

     total energy              =     -22.85843619 Ry
     Harris-Foulkes estimate   =     -22.85840626 Ry
     estimated scf accuracy    <       0.00001156 Ry

     iteration #  8     ecut=    36.00 Ry     beta=0.70
     Davidson diagonalization with overlap
     ethr =  1.44E-07,  avg # of iterations =  3.0

     negative rho (up, down):  1.356E-05 0.000E+00

     total cpu time spent up to now is        3.6 secs

     total energy              =     -22.85843862 Ry
     Harris-Foulkes estimate   =     -22.85844568 Ry
     estimated scf accuracy    <       0.00001344 Ry

     iteration #  9     ecut=    36.00 Ry     beta=0.70
     Davidson diagonalization with overlap
     ethr =  1.44E-07,  avg # of iterations =  2.0

     total cpu time spent up to now is        3.9 secs

     End of self-consistent calculation

          k = 0.0000 0.0000 0.0000 (  7470 PWs)   bands (ev):

   -21.1743 -11.0339 -11.0020  -5.9651

     highest occupied level (ev):    -5.9651

!    total energy              =     -22.85844197 Ry
     Harris-Foulkes estimate   =     -22.85844230 Ry
     estimated scf accuracy    <       0.00000061 Ry

     The total energy is the sum of the following terms:

     one-electron contribution =     -45.97883226 Ry
     hartree contribution      =      23.98223878 Ry
     xc contribution           =      -7.10986274 Ry
     ewald contribution        =       6.24801425 Ry

     convergence has been achieved in   9 iterations

     Forces acting on atoms (cartesian axes, Ry/au):

     atom    1 type  2   force =    -0.04246690   -0.03951134   -0.04794288
     atom    2 type  1   force =     0.05310310   -0.00769207   -0.00840652
     atom    3 type  1   force =    -0.00558172    0.05357753   -0.00762484
     atom    4 type  1   force =    -0.00505447   -0.00637412    0.06397424

     Total force =     0.125426     Total SCF correction =     0.000795

     init_run     :      0.26s CPU      0.28s WALL (       1 calls)
     electrons    :      3.59s CPU      3.61s WALL (       1 calls)
     forces       :      0.14s CPU      0.14s WALL (       1 calls)

     Called by init_run:
     wfcinit      :      0.03s CPU      0.03s WALL (       1 calls)
     potinit      :      0.18s CPU      0.19s WALL (       1 calls)

     Called by electrons:
     c_bands      :      1.06s CPU      1.05s WALL (       9 calls)
     sum_band     :      0.34s CPU      0.35s WALL (       9 calls)
     v_of_rho     :      1.98s CPU      2.01s WALL (      10 calls)
     mix_rho      :      0.28s CPU      0.27s WALL (       9 calls)

     Called by c_bands:
     init_us_2    :      0.02s CPU      0.02s WALL (      19 calls)
     regterg      :      1.04s CPU      1.04s WALL (       9 calls)

     Called by sum_band:

     Called by *egterg:
     h_psi        :      0.98s CPU      1.00s WALL (      39 calls)
     g_psi        :      0.02s CPU      0.01s WALL (      29 calls)
     rdiaghg      :      0.00s CPU      0.00s WALL (      38 calls)

     Called by h_psi:
     h_psi:pot    :      0.97s CPU      1.00s WALL (      39 calls)
     h_psi:calbec :      0.00s CPU      0.01s WALL (      39 calls)
     vloc_psi     :      0.96s CPU      0.98s WALL (      39 calls)
     add_vuspsi   :      0.00s CPU      0.00s WALL (      39 calls)

     General routines
     calbec       :      0.00s CPU      0.01s WALL (      43 calls)
     fft          :      0.85s CPU      0.88s WALL (     111 calls)
     fftw         :      0.90s CPU      0.93s WALL (     166 calls)

     Parallel routines
     fft_scatter  :      0.50s CPU      0.49s WALL (     277 calls)

     PWSCF        :     4.00s CPU         4.05s WALL


   This run was terminated on:   0:15:19  11Jun2017            

=------------------------------------------------------------------------------=
   JOB DONE.
=------------------------------------------------------------------------------=
