
     Program PWSCF v.6.1 (svn rev. 13369) starts on 11Jun2017 at  0:15: 9 

     This program is part of the open-source Quantum ESPRESSO suite
     for quantum simulation of materials; please cite
         "P. Giannozzi et al., J. Phys.:Condens. Matter 21 395502 (2009);
          URL http://www.quantum-espresso.org", 
     in publications or presentations arising from this work. More details at
     http://www.quantum-espresso.org/quote

     Parallel version (MPI), running on     1 processors
     Waiting for input...
     Reading input from standard input

     Current dimensions of program PWSCF are:
     Max number of different atomic species (ntypx) = 10
     Max number of k-points (npk) =  40000
     Max angular momentum in pseudopotentials (lmaxx) =  3
     Message from routine iosys:
     minimal I/O required, wf_collect reset to FALSE

     gamma-point specific algorithms are used

     Subspace diagonalization in iterative solution of the eigenvalue problem:
     a serial algorithm will be used


     G-vector sticks info
     --------------------
     sticks:   dense  smooth     PW     G-vecs:    dense   smooth      PW
     Sum        2601    2601    657               100377   100377   12533



     bravais-lattice index     =            0
     lattice parameter (alat)  =      16.0000  a.u.
     unit-cell volume          =    4096.0000 (a.u.)^3
     number of atoms/cell      =            4
     number of atomic types    =            2
     number of electrons       =         8.00
     number of Kohn-Sham states=            4
     kinetic-energy cutoff     =      32.0000  Ry
     charge density cutoff     =     128.0000  Ry
     convergence threshold     =      1.0E-06
     mixing beta               =       0.7000
     number of iterations used =            8  plain     mixing
     Exchange-correlation      = PBE ( 1  4  3  4 0 0)

     celldm(1)=  16.000000  celldm(2)=   0.000000  celldm(3)=   0.000000
     celldm(4)=   0.000000  celldm(5)=   0.000000  celldm(6)=   0.000000

     crystal axes: (cart. coord. in units of alat)
               a(1) = (   1.000000   0.000000   0.000000 )  
               a(2) = (   0.000000   1.000000   0.000000 )  
               a(3) = (   0.000000   0.000000   1.000000 )  

     reciprocal axes: (cart. coord. in units 2 pi/alat)
               b(1) = (  1.000000  0.000000  0.000000 )  
               b(2) = (  0.000000  1.000000  0.000000 )  
               b(3) = (  0.000000  0.000000  1.000000 )  


     PseudoPot. # 1 for  H read from file:
     ../GTH_PBE/H.q1.gth
     MD5 check sum: 1bc203b4ccdc7556521da00b64edec72
     Pseudo is Norm-conserving, Zval =  1.0
     GTH norm-conserving PP, generated by Matthias Krack
     Using radial grid of  929 points,  1 beta functions with: 
                l(1) =   0

     PseudoPot. # 2 for  N read from file:
     ../GTH_PBE/N.q5.gth
     MD5 check sum: b363b8d5f1d7321863e01e4875e4890c
     Pseudo is Norm-conserving, Zval =  5.0
     GTH norm-conserving PP, generated by Matthias Krack
     Using radial grid of 1085 points,  1 beta functions with: 
                l(1) =   0

     atomic species   valence    mass     pseudopotential
        H              1.00     1.01000      H( 1.00)
        N              5.00    14.01000      N( 1.00)

     No symmetry found



   Cartesian axes

     site n.     atom                  positions (alat units)
         1           N   tau(   1) = (   0.4503085   0.4518267   0.4524722  )
         2           H   tau(   2) = (   0.5667983   0.4305661   0.4292002  )
         3           H   tau(   3) = (   0.4332017   0.5694339   0.4316014  )
         4           H   tau(   4) = (   0.4365324   0.4366156   0.5707998  )

     number of k points=     1
                       cart. coord. in units 2pi/alat
        k(    1) = (   0.0000000   0.0000000   0.0000000), wk =   2.0000000

     Dense  grid:    50189 G-vectors     FFT dimensions: (  60,  60,  60)

     Estimated max dynamical RAM per process >      38.00MB

     Initial potential from superposition of free atoms

     negative rho (up, down):  2.244E-08 0.000E+00
     Starting wfc are random

     total cpu time spent up to now is        0.2 secs

     per-process dynamical memory:    36.4 Mb

     Self-consistent Calculation

     iteration #  1     ecut=    32.00 Ry     beta=0.70
     Davidson diagonalization with overlap
     ethr =  1.00E-02,  avg # of iterations =  8.0

     total cpu time spent up to now is        0.6 secs

     total energy              =     -17.53868576 Ry
     Harris-Foulkes estimate   =     -25.59223909 Ry
     estimated scf accuracy    <      10.44339508 Ry

     iteration #  2     ecut=    32.00 Ry     beta=0.70
     Davidson diagonalization with overlap
     ethr =  1.00E-02,  avg # of iterations =  5.0

     total cpu time spent up to now is        1.0 secs

     total energy              =     -22.24351504 Ry
     Harris-Foulkes estimate   =     -25.61170813 Ry
     estimated scf accuracy    <       6.41559209 Ry

     iteration #  3     ecut=    32.00 Ry     beta=0.70
     Davidson diagonalization with overlap
     ethr =  1.00E-02,  avg # of iterations =  3.0

     total cpu time spent up to now is        1.3 secs

     total energy              =     -22.79650482 Ry
     Harris-Foulkes estimate   =     -22.97286921 Ry
     estimated scf accuracy    <       0.51397217 Ry

     iteration #  4     ecut=    32.00 Ry     beta=0.70
     Davidson diagonalization with overlap
     ethr =  6.42E-03,  avg # of iterations =  1.0

     total cpu time spent up to now is        1.6 secs

     total energy              =     -22.68701661 Ry
     Harris-Foulkes estimate   =     -22.80680072 Ry
     estimated scf accuracy    <       0.19637135 Ry

     iteration #  5     ecut=    32.00 Ry     beta=0.70
     Davidson diagonalization with overlap
     ethr =  2.45E-03,  avg # of iterations =  2.0

     total cpu time spent up to now is        1.8 secs

     total energy              =     -22.71595400 Ry
     Harris-Foulkes estimate   =     -22.72345389 Ry
     estimated scf accuracy    <       0.01236979 Ry

     iteration #  6     ecut=    32.00 Ry     beta=0.70
     Davidson diagonalization with overlap
     ethr =  1.55E-04,  avg # of iterations =  2.0

     total cpu time spent up to now is        2.1 secs

     total energy              =     -22.71961428 Ry
     Harris-Foulkes estimate   =     -22.72039487 Ry
     estimated scf accuracy    <       0.00172246 Ry

     iteration #  7     ecut=    32.00 Ry     beta=0.70
     Davidson diagonalization with overlap
     ethr =  2.15E-05,  avg # of iterations =  2.0

     negative rho (up, down):  9.111E-06 0.000E+00

     total cpu time spent up to now is        2.3 secs

     total energy              =     -22.71997039 Ry
     Harris-Foulkes estimate   =     -22.71994223 Ry
     estimated scf accuracy    <       0.00000852 Ry

     iteration #  8     ecut=    32.00 Ry     beta=0.70
     Davidson diagonalization with overlap
     ethr =  1.06E-07,  avg # of iterations =  3.0

     negative rho (up, down):  9.604E-06 0.000E+00

     total cpu time spent up to now is        2.6 secs

     total energy              =     -22.71996997 Ry
     Harris-Foulkes estimate   =     -22.71997754 Ry
     estimated scf accuracy    <       0.00001418 Ry

     iteration #  9     ecut=    32.00 Ry     beta=0.70
     Davidson diagonalization with overlap
     ethr =  1.06E-07,  avg # of iterations =  2.0

     total cpu time spent up to now is        2.8 secs

     End of self-consistent calculation

          k = 0.0000 0.0000 0.0000 (  6267 PWs)   bands (ev):

   -21.2158 -11.0392 -11.0079  -5.9715

     highest occupied level (ev):    -5.9715

!    total energy              =     -22.71997350 Ry
     Harris-Foulkes estimate   =     -22.71997393 Ry
     estimated scf accuracy    <       0.00000071 Ry

     The total energy is the sum of the following terms:

     one-electron contribution =     -45.71347884 Ry
     hartree contribution      =      23.82715825 Ry
     xc contribution           =      -7.08166714 Ry
     ewald contribution        =       6.24801422 Ry

     convergence has been achieved in   9 iterations

     Forces acting on atoms (cartesian axes, Ry/au):

     atom    1 type  2   force =    -0.06181741   -0.05852661   -0.06611333
     atom    2 type  1   force =     0.07978917   -0.01249805   -0.01361164
     atom    3 type  1   force =    -0.00961628    0.08080704   -0.01223280
     atom    4 type  1   force =    -0.00835548   -0.00978238    0.09195777

     Total force =     0.183628     Total SCF correction =     0.000837

     init_run     :      0.19s CPU      0.21s WALL (       1 calls)
     electrons    :      2.62s CPU      2.63s WALL (       1 calls)
     forces       :      0.11s CPU      0.12s WALL (       1 calls)

     Called by init_run:
     wfcinit      :      0.02s CPU      0.02s WALL (       1 calls)
     potinit      :      0.13s CPU      0.14s WALL (       1 calls)

     Called by electrons:
     c_bands      :      0.68s CPU      0.68s WALL (       9 calls)
     sum_band     :      0.22s CPU      0.22s WALL (       9 calls)
     v_of_rho     :      1.56s CPU      1.57s WALL (      10 calls)
     mix_rho      :      0.20s CPU      0.20s WALL (       9 calls)

     Called by c_bands:
     init_us_2    :      0.02s CPU      0.01s WALL (      19 calls)
     regterg      :      0.67s CPU      0.67s WALL (       9 calls)

     Called by sum_band:

     Called by *egterg:
     h_psi        :      0.64s CPU      0.63s WALL (      38 calls)
     g_psi        :      0.01s CPU      0.01s WALL (      28 calls)
     rdiaghg      :      0.00s CPU      0.00s WALL (      37 calls)

     Called by h_psi:
     h_psi:pot    :      0.64s CPU      0.63s WALL (      38 calls)
     h_psi:calbec :      0.01s CPU      0.01s WALL (      38 calls)
     vloc_psi     :      0.62s CPU      0.62s WALL (      38 calls)
     add_vuspsi   :      0.00s CPU      0.00s WALL (      38 calls)

     General routines
     calbec       :      0.01s CPU      0.01s WALL (      42 calls)
     fft          :      0.54s CPU      0.54s WALL (     111 calls)
     fftw         :      0.52s CPU      0.55s WALL (     164 calls)

     Parallel routines
     fft_scatter  :      0.25s CPU      0.25s WALL (     275 calls)

     PWSCF        :     2.93s CPU         2.97s WALL


   This run was terminated on:   0:15:12  11Jun2017            

=------------------------------------------------------------------------------=
   JOB DONE.
=------------------------------------------------------------------------------=
