
     Program PWSCF v.6.1 (svn rev. 13369) starts on 11Jun2017 at  0:15:45 

     This program is part of the open-source Quantum ESPRESSO suite
     for quantum simulation of materials; please cite
         "P. Giannozzi et al., J. Phys.:Condens. Matter 21 395502 (2009);
          URL http://www.quantum-espresso.org", 
     in publications or presentations arising from this work. More details at
     http://www.quantum-espresso.org/quote

     Parallel version (MPI), running on     1 processors
     Waiting for input...
     Reading input from standard input

     Current dimensions of program PWSCF are:
     Max number of different atomic species (ntypx) = 10
     Max number of k-points (npk) =  40000
     Max angular momentum in pseudopotentials (lmaxx) =  3
     Message from routine iosys:
     minimal I/O required, wf_collect reset to FALSE

     gamma-point specific algorithms are used

     Subspace diagonalization in iterative solution of the eigenvalue problem:
     a serial algorithm will be used


     G-vector sticks info
     --------------------
     sticks:   dense  smooth     PW     G-vecs:    dense   smooth      PW
     Sum        3909    3909    973               184115   184115   22983



     bravais-lattice index     =            0
     lattice parameter (alat)  =      16.0000  a.u.
     unit-cell volume          =    4096.0000 (a.u.)^3
     number of atoms/cell      =            4
     number of atomic types    =            2
     number of electrons       =         8.00
     number of Kohn-Sham states=            4
     kinetic-energy cutoff     =      48.0000  Ry
     charge density cutoff     =     192.0000  Ry
     convergence threshold     =      1.0E-06
     mixing beta               =       0.7000
     number of iterations used =            8  plain     mixing
     Exchange-correlation      = PBE ( 1  4  3  4 0 0)

     celldm(1)=  16.000000  celldm(2)=   0.000000  celldm(3)=   0.000000
     celldm(4)=   0.000000  celldm(5)=   0.000000  celldm(6)=   0.000000

     crystal axes: (cart. coord. in units of alat)
               a(1) = (   1.000000   0.000000   0.000000 )  
               a(2) = (   0.000000   1.000000   0.000000 )  
               a(3) = (   0.000000   0.000000   1.000000 )  

     reciprocal axes: (cart. coord. in units 2 pi/alat)
               b(1) = (  1.000000  0.000000  0.000000 )  
               b(2) = (  0.000000  1.000000  0.000000 )  
               b(3) = (  0.000000  0.000000  1.000000 )  


     PseudoPot. # 1 for  H read from file:
     ../GTH_PBE/H.q1.gth
     MD5 check sum: 1bc203b4ccdc7556521da00b64edec72
     Pseudo is Norm-conserving, Zval =  1.0
     GTH norm-conserving PP, generated by Matthias Krack
     Using radial grid of  929 points,  1 beta functions with: 
                l(1) =   0

     PseudoPot. # 2 for  N read from file:
     ../GTH_PBE/N.q5.gth
     MD5 check sum: b363b8d5f1d7321863e01e4875e4890c
     Pseudo is Norm-conserving, Zval =  5.0
     GTH norm-conserving PP, generated by Matthias Krack
     Using radial grid of 1085 points,  1 beta functions with: 
                l(1) =   0

     atomic species   valence    mass     pseudopotential
        H              1.00     1.01000      H( 1.00)
        N              5.00    14.01000      N( 1.00)

     No symmetry found



   Cartesian axes

     site n.     atom                  positions (alat units)
         1           N   tau(   1) = (   0.4503085   0.4518267   0.4524722  )
         2           H   tau(   2) = (   0.5667983   0.4305661   0.4292002  )
         3           H   tau(   3) = (   0.4332017   0.5694339   0.4316014  )
         4           H   tau(   4) = (   0.4365324   0.4366156   0.5707998  )

     number of k points=     1
                       cart. coord. in units 2pi/alat
        k(    1) = (   0.0000000   0.0000000   0.0000000), wk =   2.0000000

     Dense  grid:    92058 G-vectors     FFT dimensions: (  72,  72,  72)

     Estimated max dynamical RAM per process >      68.12MB

     Initial potential from superposition of free atoms

     negative rho (up, down):  2.893E-08 0.000E+00
     Starting wfc are random

     total cpu time spent up to now is        0.4 secs

     per-process dynamical memory:    57.2 Mb

     Self-consistent Calculation

     iteration #  1     ecut=    48.00 Ry     beta=0.70
     Davidson diagonalization with overlap
     ethr =  1.00E-02,  avg # of iterations =  9.0

     total cpu time spent up to now is        1.3 secs

     total energy              =     -17.96752332 Ry
     Harris-Foulkes estimate   =     -25.70378556 Ry
     estimated scf accuracy    <      10.04133147 Ry

     iteration #  2     ecut=    48.00 Ry     beta=0.70
     Davidson diagonalization with overlap
     ethr =  1.00E-02,  avg # of iterations =  5.0

     total cpu time spent up to now is        1.9 secs

     total energy              =     -22.56842530 Ry
     Harris-Foulkes estimate   =     -26.18785048 Ry
     estimated scf accuracy    <       7.00774821 Ry

     iteration #  3     ecut=    48.00 Ry     beta=0.70
     Davidson diagonalization with overlap
     ethr =  1.00E-02,  avg # of iterations =  3.0

     total cpu time spent up to now is        2.5 secs

     total energy              =     -23.22808204 Ry
     Harris-Foulkes estimate   =     -23.38317043 Ry
     estimated scf accuracy    <       0.53163374 Ry

     iteration #  4     ecut=    48.00 Ry     beta=0.70
     Davidson diagonalization with overlap
     ethr =  6.65E-03,  avg # of iterations =  1.0

     total cpu time spent up to now is        2.9 secs

     total energy              =     -23.07958252 Ry
     Harris-Foulkes estimate   =     -23.23558891 Ry
     estimated scf accuracy    <       0.24943011 Ry

     iteration #  5     ecut=    48.00 Ry     beta=0.70
     Davidson diagonalization with overlap
     ethr =  3.12E-03,  avg # of iterations =  2.0

     total cpu time spent up to now is        3.4 secs

     total energy              =     -23.11714009 Ry
     Harris-Foulkes estimate   =     -23.12632028 Ry
     estimated scf accuracy    <       0.01578848 Ry

     iteration #  6     ecut=    48.00 Ry     beta=0.70
     Davidson diagonalization with overlap
     ethr =  1.97E-04,  avg # of iterations =  2.0

     total cpu time spent up to now is        4.0 secs

     total energy              =     -23.12173619 Ry
     Harris-Foulkes estimate   =     -23.12251960 Ry
     estimated scf accuracy    <       0.00185528 Ry

     iteration #  7     ecut=    48.00 Ry     beta=0.70
     Davidson diagonalization with overlap
     ethr =  2.32E-05,  avg # of iterations =  2.0

     negative rho (up, down):  3.974E-05 0.000E+00

     total cpu time spent up to now is        4.5 secs

     total energy              =     -23.12209034 Ry
     Harris-Foulkes estimate   =     -23.12205988 Ry
     estimated scf accuracy    <       0.00002485 Ry

     iteration #  8     ecut=    48.00 Ry     beta=0.70
     Davidson diagonalization with overlap
     ethr =  3.11E-07,  avg # of iterations =  3.0

     negative rho (up, down):  3.985E-05 0.000E+00

     total cpu time spent up to now is        5.1 secs

     total energy              =     -23.12209742 Ry
     Harris-Foulkes estimate   =     -23.12210409 Ry
     estimated scf accuracy    <       0.00001263 Ry

     iteration #  9     ecut=    48.00 Ry     beta=0.70
     Davidson diagonalization with overlap
     ethr =  1.58E-07,  avg # of iterations =  2.0

     total cpu time spent up to now is        5.6 secs

     End of self-consistent calculation

          k = 0.0000 0.0000 0.0000 ( 11492 PWs)   bands (ev):

   -21.1032 -11.0051 -10.9726  -5.9668

     highest occupied level (ev):    -5.9668

!    total energy              =     -23.12210057 Ry
     Harris-Foulkes estimate   =     -23.12210109 Ry
     estimated scf accuracy    <       0.00000072 Ry

     The total energy is the sum of the following terms:

     one-electron contribution =     -46.49004317 Ry
     hartree contribution      =      24.28176191 Ry
     xc contribution           =      -7.16183356 Ry
     ewald contribution        =       6.24801425 Ry

     convergence has been achieved in   9 iterations

     Forces acting on atoms (cartesian axes, Ry/au):

     atom    1 type  2   force =    -0.01319092   -0.01226016   -0.02081973
     atom    2 type  1   force =     0.01812339   -0.00314555   -0.00311736
     atom    3 type  1   force =    -0.00240891    0.01855914   -0.00295766
     atom    4 type  1   force =    -0.00252356   -0.00315343    0.02689475

     Total force =     0.046952     Total SCF correction =     0.000854

     init_run     :      0.38s CPU      0.40s WALL (       1 calls)
     electrons    :      5.17s CPU      5.19s WALL (       1 calls)
     forces       :      0.23s CPU      0.23s WALL (       1 calls)

     Called by init_run:
     wfcinit      :      0.04s CPU      0.05s WALL (       1 calls)
     potinit      :      0.24s CPU      0.26s WALL (       1 calls)

     Called by electrons:
     c_bands      :      1.44s CPU      1.45s WALL (       9 calls)
     sum_band     :      0.47s CPU      0.46s WALL (       9 calls)
     v_of_rho     :      2.93s CPU      2.96s WALL (      10 calls)
     mix_rho      :      0.40s CPU      0.42s WALL (       9 calls)

     Called by c_bands:
     init_us_2    :      0.03s CPU      0.03s WALL (      19 calls)
     regterg      :      1.43s CPU      1.44s WALL (       9 calls)

     Called by sum_band:

     Called by *egterg:
     h_psi        :      1.36s CPU      1.36s WALL (      39 calls)
     g_psi        :      0.03s CPU      0.02s WALL (      29 calls)
     rdiaghg      :      0.01s CPU      0.00s WALL (      38 calls)

     Called by h_psi:
     h_psi:pot    :      1.34s CPU      1.35s WALL (      39 calls)
     h_psi:calbec :      0.02s CPU      0.01s WALL (      39 calls)
     vloc_psi     :      1.32s CPU      1.34s WALL (      39 calls)
     add_vuspsi   :      0.00s CPU      0.01s WALL (      39 calls)

     General routines
     calbec       :      0.02s CPU      0.01s WALL (      43 calls)
     fft          :      1.21s CPU      1.22s WALL (     111 calls)
     fftw         :      1.22s CPU      1.24s WALL (     164 calls)

     Parallel routines
     fft_scatter  :      0.46s CPU      0.49s WALL (     275 calls)

     PWSCF        :     5.79s CPU         5.84s WALL


   This run was terminated on:   0:15:51  11Jun2017            

=------------------------------------------------------------------------------=
   JOB DONE.
=------------------------------------------------------------------------------=
