
     Program PWSCF v.6.1 (svn rev. 13369) starts on 11Jun2017 at  0:15:28 

     This program is part of the open-source Quantum ESPRESSO suite
     for quantum simulation of materials; please cite
         "P. Giannozzi et al., J. Phys.:Condens. Matter 21 395502 (2009);
          URL http://www.quantum-espresso.org", 
     in publications or presentations arising from this work. More details at
     http://www.quantum-espresso.org/quote

     Parallel version (MPI), running on     1 processors
     Waiting for input...
     Reading input from standard input

     Current dimensions of program PWSCF are:
     Max number of different atomic species (ntypx) = 10
     Max number of k-points (npk) =  40000
     Max angular momentum in pseudopotentials (lmaxx) =  3
     Message from routine iosys:
     minimal I/O required, wf_collect reset to FALSE

     gamma-point specific algorithms are used

     Subspace diagonalization in iterative solution of the eigenvalue problem:
     a serial algorithm will be used


     G-vector sticks info
     --------------------
     sticks:   dense  smooth     PW     G-vecs:    dense   smooth      PW
     Sum        3409    3409    861               150555   150555   18853



     bravais-lattice index     =            0
     lattice parameter (alat)  =      16.0000  a.u.
     unit-cell volume          =    4096.0000 (a.u.)^3
     number of atoms/cell      =            4
     number of atomic types    =            2
     number of electrons       =         8.00
     number of Kohn-Sham states=            4
     kinetic-energy cutoff     =      42.0000  Ry
     charge density cutoff     =     168.0000  Ry
     convergence threshold     =      1.0E-06
     mixing beta               =       0.7000
     number of iterations used =            8  plain     mixing
     Exchange-correlation      = PBE ( 1  4  3  4 0 0)

     celldm(1)=  16.000000  celldm(2)=   0.000000  celldm(3)=   0.000000
     celldm(4)=   0.000000  celldm(5)=   0.000000  celldm(6)=   0.000000

     crystal axes: (cart. coord. in units of alat)
               a(1) = (   1.000000   0.000000   0.000000 )  
               a(2) = (   0.000000   1.000000   0.000000 )  
               a(3) = (   0.000000   0.000000   1.000000 )  

     reciprocal axes: (cart. coord. in units 2 pi/alat)
               b(1) = (  1.000000  0.000000  0.000000 )  
               b(2) = (  0.000000  1.000000  0.000000 )  
               b(3) = (  0.000000  0.000000  1.000000 )  


     PseudoPot. # 1 for  H read from file:
     ../GTH_PBE/H.q1.gth
     MD5 check sum: 1bc203b4ccdc7556521da00b64edec72
     Pseudo is Norm-conserving, Zval =  1.0
     GTH norm-conserving PP, generated by Matthias Krack
     Using radial grid of  929 points,  1 beta functions with: 
                l(1) =   0

     PseudoPot. # 2 for  N read from file:
     ../GTH_PBE/N.q5.gth
     MD5 check sum: b363b8d5f1d7321863e01e4875e4890c
     Pseudo is Norm-conserving, Zval =  5.0
     GTH norm-conserving PP, generated by Matthias Krack
     Using radial grid of 1085 points,  1 beta functions with: 
                l(1) =   0

     atomic species   valence    mass     pseudopotential
        H              1.00     1.01000      H( 1.00)
        N              5.00    14.01000      N( 1.00)

     No symmetry found



   Cartesian axes

     site n.     atom                  positions (alat units)
         1           N   tau(   1) = (   0.4503085   0.4518267   0.4524722  )
         2           H   tau(   2) = (   0.5667983   0.4305661   0.4292002  )
         3           H   tau(   3) = (   0.4332017   0.5694339   0.4316014  )
         4           H   tau(   4) = (   0.4365324   0.4366156   0.5707998  )

     number of k points=     1
                       cart. coord. in units 2pi/alat
        k(    1) = (   0.0000000   0.0000000   0.0000000), wk =   2.0000000

     Dense  grid:    75278 G-vectors     FFT dimensions: (  72,  72,  72)

     Estimated max dynamical RAM per process >      60.38MB

     Initial potential from superposition of free atoms

     negative rho (up, down):  2.783E-08 0.000E+00
     Starting wfc are random

     total cpu time spent up to now is        0.4 secs

     per-process dynamical memory:    54.0 Mb

     Self-consistent Calculation

     iteration #  1     ecut=    42.00 Ry     beta=0.70
     Davidson diagonalization with overlap
     ethr =  1.00E-02,  avg # of iterations =  9.0

     total cpu time spent up to now is        1.2 secs

     total energy              =     -17.87730764 Ry
     Harris-Foulkes estimate   =     -25.67598941 Ry
     estimated scf accuracy    <      10.11863944 Ry

     iteration #  2     ecut=    42.00 Ry     beta=0.70
     Davidson diagonalization with overlap
     ethr =  1.00E-02,  avg # of iterations =  6.0

     total cpu time spent up to now is        1.9 secs

     total energy              =     -22.46952661 Ry
     Harris-Foulkes estimate   =     -26.02257768 Ry
     estimated scf accuracy    <       6.84961490 Ry

     iteration #  3     ecut=    42.00 Ry     beta=0.70
     Davidson diagonalization with overlap
     ethr =  1.00E-02,  avg # of iterations =  3.0

     total cpu time spent up to now is        2.5 secs

     total energy              =     -23.11394188 Ry
     Harris-Foulkes estimate   =     -23.27094767 Ry
     estimated scf accuracy    <       0.52634058 Ry

     iteration #  4     ecut=    42.00 Ry     beta=0.70
     Davidson diagonalization with overlap
     ethr =  6.58E-03,  avg # of iterations =  1.0

     total cpu time spent up to now is        2.9 secs

     total energy              =     -22.97303670 Ry
     Harris-Foulkes estimate   =     -23.12168498 Ry
     estimated scf accuracy    <       0.24018435 Ry

     iteration #  5     ecut=    42.00 Ry     beta=0.70
     Davidson diagonalization with overlap
     ethr =  3.00E-03,  avg # of iterations =  2.0

     total cpu time spent up to now is        3.4 secs

     total energy              =     -23.00854344 Ry
     Harris-Foulkes estimate   =     -23.01688210 Ry
     estimated scf accuracy    <       0.01418318 Ry

     iteration #  6     ecut=    42.00 Ry     beta=0.70
     Davidson diagonalization with overlap
     ethr =  1.77E-04,  avg # of iterations =  2.0

     total cpu time spent up to now is        3.8 secs

     total energy              =     -23.01270552 Ry
     Harris-Foulkes estimate   =     -23.01353357 Ry
     estimated scf accuracy    <       0.00187755 Ry

     iteration #  7     ecut=    42.00 Ry     beta=0.70
     Davidson diagonalization with overlap
     ethr =  2.35E-05,  avg # of iterations =  2.0

     negative rho (up, down):  2.547E-05 0.000E+00

     total cpu time spent up to now is        4.3 secs

     total energy              =     -23.01308085 Ry
     Harris-Foulkes estimate   =     -23.01304797 Ry
     estimated scf accuracy    <       0.00001422 Ry

     iteration #  8     ecut=    42.00 Ry     beta=0.70
     Davidson diagonalization with overlap
     ethr =  1.78E-07,  avg # of iterations =  3.0

     negative rho (up, down):  1.454E-05 0.000E+00

     total cpu time spent up to now is        4.9 secs

     total energy              =     -23.01308409 Ry
     Harris-Foulkes estimate   =     -23.01309113 Ry
     estimated scf accuracy    <       0.00001313 Ry

     iteration #  9     ecut=    42.00 Ry     beta=0.70
     Davidson diagonalization with overlap
     ethr =  1.64E-07,  avg # of iterations =  2.0

     total cpu time spent up to now is        5.3 secs

     End of self-consistent calculation

          k = 0.0000 0.0000 0.0000 (  9427 PWs)   bands (ev):

   -21.1369 -11.0185 -10.9858  -5.9649

     highest occupied level (ev):    -5.9649

!    total energy              =     -23.01308738 Ry
     Harris-Foulkes estimate   =     -23.01308801 Ry
     estimated scf accuracy    <       0.00000091 Ry

     The total energy is the sum of the following terms:

     one-electron contribution =     -46.27848195 Ry
     hartree contribution      =      24.15815147 Ry
     xc contribution           =      -7.14077115 Ry
     ewald contribution        =       6.24801425 Ry

     convergence has been achieved in   9 iterations

     Forces acting on atoms (cartesian axes, Ry/au):

     atom    1 type  2   force =    -0.02095372   -0.01966248   -0.02860086
     atom    2 type  1   force =     0.02633802   -0.00355060   -0.00372253
     atom    3 type  1   force =    -0.00262096    0.02670272   -0.00347455
     atom    4 type  1   force =    -0.00276333   -0.00348964    0.03579794

     Total force =     0.066311     Total SCF correction =     0.001005

     init_run     :      0.36s CPU      0.37s WALL (       1 calls)
     electrons    :      4.88s CPU      4.93s WALL (       1 calls)
     forces       :      0.17s CPU      0.17s WALL (       1 calls)

     Called by init_run:
     wfcinit      :      0.04s CPU      0.04s WALL (       1 calls)
     potinit      :      0.23s CPU      0.24s WALL (       1 calls)

     Called by electrons:
     c_bands      :      1.39s CPU      1.40s WALL (       9 calls)
     sum_band     :      0.43s CPU      0.43s WALL (       9 calls)
     v_of_rho     :      2.83s CPU      2.85s WALL (      10 calls)
     mix_rho      :      0.33s CPU      0.34s WALL (       9 calls)

     Called by c_bands:
     init_us_2    :      0.01s CPU      0.02s WALL (      19 calls)
     regterg      :      1.39s CPU      1.38s WALL (       9 calls)

     Called by sum_band:

     Called by *egterg:
     h_psi        :      1.34s CPU      1.33s WALL (      40 calls)
     g_psi        :      0.01s CPU      0.02s WALL (      30 calls)
     rdiaghg      :      0.00s CPU      0.00s WALL (      39 calls)

     Called by h_psi:
     h_psi:pot    :      1.34s CPU      1.32s WALL (      40 calls)
     h_psi:calbec :      0.01s CPU      0.01s WALL (      40 calls)
     vloc_psi     :      1.30s CPU      1.31s WALL (      40 calls)
     add_vuspsi   :      0.02s CPU      0.00s WALL (      40 calls)

     General routines
     calbec       :      0.01s CPU      0.01s WALL (      44 calls)
     fft          :      1.10s CPU      1.13s WALL (     111 calls)
     fftw         :      1.22s CPU      1.21s WALL (     168 calls)

     Parallel routines
     fft_scatter  :      0.44s CPU      0.47s WALL (     279 calls)

     PWSCF        :     5.42s CPU         5.48s WALL


   This run was terminated on:   0:15:34  11Jun2017            

=------------------------------------------------------------------------------=
   JOB DONE.
=------------------------------------------------------------------------------=
