
     Program PWSCF v.6.1 (svn rev. 13369) starts on 11Jun2017 at  0:15: 1 

     This program is part of the open-source Quantum ESPRESSO suite
     for quantum simulation of materials; please cite
         "P. Giannozzi et al., J. Phys.:Condens. Matter 21 395502 (2009);
          URL http://www.quantum-espresso.org", 
     in publications or presentations arising from this work. More details at
     http://www.quantum-espresso.org/quote

     Parallel version (MPI), running on     1 processors
     Waiting for input...
     Reading input from standard input

     Current dimensions of program PWSCF are:
     Max number of different atomic species (ntypx) = 10
     Max number of k-points (npk) =  40000
     Max angular momentum in pseudopotentials (lmaxx) =  3
     Message from routine iosys:
     minimal I/O required, wf_collect reset to FALSE

     gamma-point specific algorithms are used

     Subspace diagonalization in iterative solution of the eigenvalue problem:
     a serial algorithm will be used


     G-vector sticks info
     --------------------
     sticks:   dense  smooth     PW     G-vecs:    dense   smooth      PW
     Sum        2109    2109    517                73223    73223    9093



     bravais-lattice index     =            0
     lattice parameter (alat)  =      16.0000  a.u.
     unit-cell volume          =    4096.0000 (a.u.)^3
     number of atoms/cell      =            4
     number of atomic types    =            2
     number of electrons       =         8.00
     number of Kohn-Sham states=            4
     kinetic-energy cutoff     =      26.0000  Ry
     charge density cutoff     =     104.0000  Ry
     convergence threshold     =      1.0E-06
     mixing beta               =       0.7000
     number of iterations used =            8  plain     mixing
     Exchange-correlation      = PBE ( 1  4  3  4 0 0)

     celldm(1)=  16.000000  celldm(2)=   0.000000  celldm(3)=   0.000000
     celldm(4)=   0.000000  celldm(5)=   0.000000  celldm(6)=   0.000000

     crystal axes: (cart. coord. in units of alat)
               a(1) = (   1.000000   0.000000   0.000000 )  
               a(2) = (   0.000000   1.000000   0.000000 )  
               a(3) = (   0.000000   0.000000   1.000000 )  

     reciprocal axes: (cart. coord. in units 2 pi/alat)
               b(1) = (  1.000000  0.000000  0.000000 )  
               b(2) = (  0.000000  1.000000  0.000000 )  
               b(3) = (  0.000000  0.000000  1.000000 )  


     PseudoPot. # 1 for  H read from file:
     ../GTH_PBE/H.q1.gth
     MD5 check sum: 1bc203b4ccdc7556521da00b64edec72
     Pseudo is Norm-conserving, Zval =  1.0
     GTH norm-conserving PP, generated by Matthias Krack
     Using radial grid of  929 points,  1 beta functions with: 
                l(1) =   0

     PseudoPot. # 2 for  N read from file:
     ../GTH_PBE/N.q5.gth
     MD5 check sum: b363b8d5f1d7321863e01e4875e4890c
     Pseudo is Norm-conserving, Zval =  5.0
     GTH norm-conserving PP, generated by Matthias Krack
     Using radial grid of 1085 points,  1 beta functions with: 
                l(1) =   0

     atomic species   valence    mass     pseudopotential
        H              1.00     1.01000      H( 1.00)
        N              5.00    14.01000      N( 1.00)

     No symmetry found



   Cartesian axes

     site n.     atom                  positions (alat units)
         1           N   tau(   1) = (   0.4503085   0.4518267   0.4524722  )
         2           H   tau(   2) = (   0.5667983   0.4305661   0.4292002  )
         3           H   tau(   3) = (   0.4332017   0.5694339   0.4316014  )
         4           H   tau(   4) = (   0.4365324   0.4366156   0.5707998  )

     number of k points=     1
                       cart. coord. in units 2pi/alat
        k(    1) = (   0.0000000   0.0000000   0.0000000), wk =   2.0000000

     Dense  grid:    36612 G-vectors     FFT dimensions: (  54,  54,  54)

     Estimated max dynamical RAM per process >      27.72MB

     Initial potential from superposition of free atoms

     negative rho (up, down):  5.020E-07 0.000E+00
     Starting wfc are random

     total cpu time spent up to now is        0.2 secs

     per-process dynamical memory:    27.6 Mb

     Self-consistent Calculation

     iteration #  1     ecut=    26.00 Ry     beta=0.70
     Davidson diagonalization with overlap
     ethr =  1.00E-02,  avg # of iterations = 10.0

     total cpu time spent up to now is        0.5 secs

     total energy              =     -17.28540929 Ry
     Harris-Foulkes estimate   =     -25.52719758 Ry
     estimated scf accuracy    <      10.67791683 Ry

     iteration #  2     ecut=    26.00 Ry     beta=0.70
     Davidson diagonalization with overlap
     ethr =  1.00E-02,  avg # of iterations =  6.0

     total cpu time spent up to now is        0.8 secs

     total energy              =     -21.99365133 Ry
     Harris-Foulkes estimate   =     -25.15080786 Ry
     estimated scf accuracy    <       5.96682601 Ry

     iteration #  3     ecut=    26.00 Ry     beta=0.70
     Davidson diagonalization with overlap
     ethr =  1.00E-02,  avg # of iterations =  2.0

     total cpu time spent up to now is        1.0 secs

     total energy              =     -22.46682355 Ry
     Harris-Foulkes estimate   =     -22.66049531 Ry
     estimated scf accuracy    <       0.48926890 Ry

     iteration #  4     ecut=    26.00 Ry     beta=0.70
     Davidson diagonalization with overlap
     ethr =  6.12E-03,  avg # of iterations =  1.0

     total cpu time spent up to now is        1.2 secs

     total energy              =     -22.39529606 Ry
     Harris-Foulkes estimate   =     -22.48165568 Ry
     estimated scf accuracy    <       0.14723100 Ry

     iteration #  5     ecut=    26.00 Ry     beta=0.70
     Davidson diagonalization with overlap
     ethr =  1.84E-03,  avg # of iterations =  2.0

     total cpu time spent up to now is        1.4 secs

     total energy              =     -22.41750253 Ry
     Harris-Foulkes estimate   =     -22.42185303 Ry
     estimated scf accuracy    <       0.00802651 Ry

     iteration #  6     ecut=    26.00 Ry     beta=0.70
     Davidson diagonalization with overlap
     ethr =  1.00E-04,  avg # of iterations =  2.0

     total cpu time spent up to now is        1.5 secs

     total energy              =     -22.41972456 Ry
     Harris-Foulkes estimate   =     -22.42014573 Ry
     estimated scf accuracy    <       0.00082499 Ry

     iteration #  7     ecut=    26.00 Ry     beta=0.70
     Davidson diagonalization with overlap
     ethr =  1.03E-05,  avg # of iterations =  2.0

     negative rho (up, down):  2.971E-04 0.000E+00

     total cpu time spent up to now is        1.7 secs

     total energy              =     -22.41998020 Ry
     Harris-Foulkes estimate   =     -22.41995083 Ry
     estimated scf accuracy    <       0.00002684 Ry

     iteration #  8     ecut=    26.00 Ry     beta=0.70
     Davidson diagonalization with overlap
     ethr =  3.36E-07,  avg # of iterations =  2.0

     negative rho (up, down):  3.679E-08 0.000E+00

     total cpu time spent up to now is        1.9 secs

     total energy              =     -22.41997261 Ry
     Harris-Foulkes estimate   =     -22.41998251 Ry
     estimated scf accuracy    <       0.00001877 Ry

     iteration #  9     ecut=    26.00 Ry     beta=0.70
     Davidson diagonalization with overlap
     ethr =  2.35E-07,  avg # of iterations =  2.0

     total cpu time spent up to now is        2.1 secs

     End of self-consistent calculation

          k = 0.0000 0.0000 0.0000 (  4547 PWs)   bands (ev):

   -21.3493 -11.0176 -10.9872  -5.9822

     highest occupied level (ev):    -5.9822

!    total energy              =     -22.41997534 Ry
     Harris-Foulkes estimate   =     -22.41997543 Ry
     estimated scf accuracy    <       0.00000013 Ry

     The total energy is the sum of the following terms:

     one-electron contribution =     -45.13748437 Ry
     hartree contribution      =      23.48717193 Ry
     xc contribution           =      -7.01767714 Ry
     ewald contribution        =       6.24801424 Ry

     convergence has been achieved in   9 iterations

     Forces acting on atoms (cartesian axes, Ry/au):

     atom    1 type  2   force =    -0.10061251   -0.09592434   -0.10028060
     atom    2 type  1   force =     0.12814400   -0.01961811   -0.02166310
     atom    3 type  1   force =    -0.01508451    0.12993964   -0.01929777
     atom    4 type  1   force =    -0.01244698   -0.01439719    0.14124148

     Total force =     0.290605     Total SCF correction =     0.000451

     init_run     :      0.17s CPU      0.18s WALL (       1 calls)
     electrons    :      1.90s CPU      1.91s WALL (       1 calls)
     forces       :      0.09s CPU      0.09s WALL (       1 calls)

     Called by init_run:
     wfcinit      :      0.02s CPU      0.02s WALL (       1 calls)
     potinit      :      0.12s CPU      0.13s WALL (       1 calls)

     Called by electrons:
     c_bands      :      0.50s CPU      0.50s WALL (       9 calls)
     sum_band     :      0.16s CPU      0.17s WALL (       9 calls)
     v_of_rho     :      1.14s CPU      1.16s WALL (      10 calls)
     mix_rho      :      0.14s CPU      0.14s WALL (       9 calls)

     Called by c_bands:
     init_us_2    :      0.01s CPU      0.01s WALL (      19 calls)
     regterg      :      0.49s CPU      0.50s WALL (       9 calls)

     Called by sum_band:

     Called by *egterg:
     h_psi        :      0.46s CPU      0.47s WALL (      39 calls)
     g_psi        :      0.01s CPU      0.01s WALL (      29 calls)
     rdiaghg      :      0.00s CPU      0.00s WALL (      38 calls)

     Called by h_psi:
     h_psi:pot    :      0.46s CPU      0.47s WALL (      39 calls)
     h_psi:calbec :      0.00s CPU      0.01s WALL (      39 calls)
     vloc_psi     :      0.46s CPU      0.46s WALL (      39 calls)
     add_vuspsi   :      0.00s CPU      0.00s WALL (      39 calls)

     General routines
     calbec       :      0.00s CPU      0.01s WALL (      43 calls)
     fft          :      0.43s CPU      0.42s WALL (     111 calls)
     fftw         :      0.44s CPU      0.42s WALL (     162 calls)

     Parallel routines
     fft_scatter  :      0.20s CPU      0.17s WALL (     273 calls)

     PWSCF        :     2.16s CPU         2.19s WALL


   This run was terminated on:   0:15: 3  11Jun2017            

=------------------------------------------------------------------------------=
   JOB DONE.
=------------------------------------------------------------------------------=
