
     Program PWSCF v.6.1 (svn rev. 13369) starts on 11Jun2017 at  0: 8:44 

     This program is part of the open-source Quantum ESPRESSO suite
     for quantum simulation of materials; please cite
         "P. Giannozzi et al., J. Phys.:Condens. Matter 21 395502 (2009);
          URL http://www.quantum-espresso.org", 
     in publications or presentations arising from this work. More details at
     http://www.quantum-espresso.org/quote

     Parallel version (MPI), running on     1 processors
     Waiting for input...
     Reading input from standard input

     Current dimensions of program PWSCF are:
     Max number of different atomic species (ntypx) = 10
     Max number of k-points (npk) =  40000
     Max angular momentum in pseudopotentials (lmaxx) =  3
     Message from routine iosys:
     minimal I/O required, wf_collect reset to FALSE

     gamma-point specific algorithms are used

     Subspace diagonalization in iterative solution of the eigenvalue problem:
     a serial algorithm will be used


     G-vector sticks info
     --------------------
     sticks:   dense  smooth     PW     G-vecs:    dense   smooth      PW
     Sum        3909    3909    973               184115   184115   22983



     bravais-lattice index     =            0
     lattice parameter (alat)  =      16.0000  a.u.
     unit-cell volume          =    4096.0000 (a.u.)^3
     number of atoms/cell      =            4
     number of atomic types    =            2
     number of electrons       =         8.00
     number of Kohn-Sham states=            4
     kinetic-energy cutoff     =      48.0000  Ry
     charge density cutoff     =     192.0000  Ry
     convergence threshold     =      1.0E-06
     mixing beta               =       0.7000
     number of iterations used =            8  plain     mixing
     Exchange-correlation      = PBE ( 1  4  3  4 0 0)

     celldm(1)=  16.000000  celldm(2)=   0.000000  celldm(3)=   0.000000
     celldm(4)=   0.000000  celldm(5)=   0.000000  celldm(6)=   0.000000

     crystal axes: (cart. coord. in units of alat)
               a(1) = (   1.000000   0.000000   0.000000 )  
               a(2) = (   0.000000   1.000000   0.000000 )  
               a(3) = (   0.000000   0.000000   1.000000 )  

     reciprocal axes: (cart. coord. in units 2 pi/alat)
               b(1) = (  1.000000  0.000000  0.000000 )  
               b(2) = (  0.000000  1.000000  0.000000 )  
               b(3) = (  0.000000  0.000000  1.000000 )  


     PseudoPot. # 1 for  H read from file:
     ../GTH_PBE_2015/H.q1.gth
     MD5 check sum: d076fc93ed96f5cc3314eceb273f8fe5
     Pseudo is Norm-conserving, Zval =  1.0
     GTH norm-conserving PP, generated by Matthias Krack
     Using radial grid of  929 points,  0 beta functions with: 

     PseudoPot. # 2 for  N read from file:
     ../GTH_PBE_2015/N.q5.gth
     MD5 check sum: 1476ec718fff327fe2c88f248f2514f7
     Pseudo is Norm-conserving + core correction, Zval =  5.0
     New Soft-Accurate NLCC pseudopotentials, generated by Santanu Saha
     Using radial grid of 1085 points,  2 beta functions with: 
                l(1) =   0
                l(2) =   0

     atomic species   valence    mass     pseudopotential
        H              1.00     1.01000      H( 1.00)
        N              5.00    14.01000      N( 1.00)

     No symmetry found



   Cartesian axes

     site n.     atom                  positions (alat units)
         1           N   tau(   1) = (   0.4503085   0.4518267   0.4524722  )
         2           H   tau(   2) = (   0.5667983   0.4305661   0.4292002  )
         3           H   tau(   3) = (   0.4332017   0.5694339   0.4316014  )
         4           H   tau(   4) = (   0.4365324   0.4366156   0.5707998  )

     number of k points=     1
                       cart. coord. in units 2pi/alat
        k(    1) = (   0.0000000   0.0000000   0.0000000), wk =   2.0000000

     Dense  grid:    92058 G-vectors     FFT dimensions: (  72,  72,  72)

     Estimated max dynamical RAM per process >      67.77MB

     Initial potential from superposition of free atoms

     negative rho (up, down):  2.893E-08 0.000E+00
     Starting wfc are random

     total cpu time spent up to now is        0.5 secs

     per-process dynamical memory:    57.0 Mb

     Self-consistent Calculation

     iteration #  1     ecut=    48.00 Ry     beta=0.70
     Davidson diagonalization with overlap
     ethr =  1.00E-02,  avg # of iterations =  9.0

     total cpu time spent up to now is        1.5 secs

     total energy              =     -19.24434172 Ry
     Harris-Foulkes estimate   =     -27.02067712 Ry
     estimated scf accuracy    <       9.87576902 Ry

     iteration #  2     ecut=    48.00 Ry     beta=0.70
     Davidson diagonalization with overlap
     ethr =  1.00E-02,  avg # of iterations =  5.0

     total cpu time spent up to now is        2.2 secs

     total energy              =     -23.86633120 Ry
     Harris-Foulkes estimate   =     -27.80821605 Ry
     estimated scf accuracy    <       7.61152226 Ry

     iteration #  3     ecut=    48.00 Ry     beta=0.70
     Davidson diagonalization with overlap
     ethr =  1.00E-02,  avg # of iterations =  3.0

     total cpu time spent up to now is        2.8 secs

     total energy              =     -24.63742383 Ry
     Harris-Foulkes estimate   =     -24.79063388 Ry
     estimated scf accuracy    <       0.55890926 Ry

     iteration #  4     ecut=    48.00 Ry     beta=0.70
     Davidson diagonalization with overlap
     ethr =  6.99E-03,  avg # of iterations =  1.0

     total cpu time spent up to now is        3.3 secs

     total energy              =     -24.45903162 Ry
     Harris-Foulkes estimate   =     -24.64343872 Ry
     estimated scf accuracy    <       0.28515359 Ry

     iteration #  5     ecut=    48.00 Ry     beta=0.70
     Davidson diagonalization with overlap
     ethr =  3.56E-03,  avg # of iterations =  2.0

     total cpu time spent up to now is        3.8 secs

     total energy              =     -24.50091374 Ry
     Harris-Foulkes estimate   =     -24.51071876 Ry
     estimated scf accuracy    <       0.01575719 Ry

     iteration #  6     ecut=    48.00 Ry     beta=0.70
     Davidson diagonalization with overlap
     ethr =  1.97E-04,  avg # of iterations =  2.0

     total cpu time spent up to now is        4.4 secs

     total energy              =     -24.50574954 Ry
     Harris-Foulkes estimate   =     -24.50837237 Ry
     estimated scf accuracy    <       0.00558508 Ry

     iteration #  7     ecut=    48.00 Ry     beta=0.70
     Davidson diagonalization with overlap
     ethr =  6.98E-05,  avg # of iterations =  2.0

     negative rho (up, down):  3.668E-04 0.000E+00

     total cpu time spent up to now is        4.9 secs

     total energy              =     -24.50665682 Ry
     Harris-Foulkes estimate   =     -24.50661772 Ry
     estimated scf accuracy    <       0.00005503 Ry

     iteration #  8     ecut=    48.00 Ry     beta=0.70
     Davidson diagonalization with overlap
     ethr =  6.88E-07,  avg # of iterations =  3.0

     negative rho (up, down):  3.809E-04 0.000E+00

     total cpu time spent up to now is        5.5 secs

     total energy              =     -24.50667533 Ry
     Harris-Foulkes estimate   =     -24.50669579 Ry
     estimated scf accuracy    <       0.00003979 Ry

     iteration #  9     ecut=    48.00 Ry     beta=0.70
     Davidson diagonalization with overlap
     ethr =  4.97E-07,  avg # of iterations =  2.0

     total cpu time spent up to now is        6.0 secs

     total energy              =     -24.50668273 Ry
     Harris-Foulkes estimate   =     -24.50668505 Ry
     estimated scf accuracy    <       0.00000110 Ry

     iteration # 10     ecut=    48.00 Ry     beta=0.70
     Davidson diagonalization with overlap
     ethr =  1.37E-08,  avg # of iterations =  2.0

     total cpu time spent up to now is        6.4 secs

     End of self-consistent calculation

          k = 0.0000 0.0000 0.0000 ( 11492 PWs)   bands (ev):

   -21.1081 -10.9728 -10.9411  -5.9370

     highest occupied level (ev):    -5.9370

!    total energy              =     -24.50668296 Ry
     Harris-Foulkes estimate   =     -24.50668321 Ry
     estimated scf accuracy    <       0.00000035 Ry

     The total energy is the sum of the following terms:

     one-electron contribution =     -46.72734406 Ry
     hartree contribution      =      24.58309222 Ry
     xc contribution           =      -8.61044538 Ry
     ewald contribution        =       6.24801425 Ry

     convergence has been achieved in  10 iterations

     Forces acting on atoms (cartesian axes, Ry/au):

     atom    1 type  2   force =    -0.00408867   -0.00395087   -0.01288874
     atom    2 type  1   force =     0.00472656   -0.00025351    0.00000471
     atom    3 type  1   force =    -0.00008823    0.00510031   -0.00008985
     atom    4 type  1   force =    -0.00054966   -0.00089593    0.01297388

     Total force =     0.020404     Total SCF correction =     0.000578

     init_run     :      0.50s CPU      0.53s WALL (       1 calls)
     electrons    :      5.88s CPU      5.91s WALL (       1 calls)
     forces       :      0.53s CPU      0.53s WALL (       1 calls)

     Called by init_run:
     wfcinit      :      0.04s CPU      0.04s WALL (       1 calls)
     potinit      :      0.30s CPU      0.33s WALL (       1 calls)

     Called by electrons:
     c_bands      :      1.64s CPU      1.65s WALL (      10 calls)
     sum_band     :      0.52s CPU      0.53s WALL (      10 calls)
     v_of_rho     :      3.35s CPU      3.39s WALL (      11 calls)
     mix_rho      :      0.50s CPU      0.51s WALL (      10 calls)

     Called by c_bands:
     init_us_2    :      0.02s CPU      0.04s WALL (      21 calls)
     regterg      :      1.63s CPU      1.63s WALL (      10 calls)

     Called by sum_band:

     Called by *egterg:
     h_psi        :      1.54s CPU      1.54s WALL (      42 calls)
     g_psi        :      0.02s CPU      0.02s WALL (      31 calls)
     rdiaghg      :      0.00s CPU      0.01s WALL (      41 calls)

     Called by h_psi:
     h_psi:pot    :      1.53s CPU      1.53s WALL (      42 calls)
     h_psi:calbec :      0.01s CPU      0.01s WALL (      42 calls)
     vloc_psi     :      1.52s CPU      1.51s WALL (      42 calls)
     add_vuspsi   :      0.01s CPU      0.01s WALL (      42 calls)

     General routines
     calbec       :      0.01s CPU      0.01s WALL (      46 calls)
     fft          :      1.46s CPU      1.46s WALL (     131 calls)
     fftw         :      1.41s CPU      1.41s WALL (     180 calls)

     Parallel routines
     fft_scatter  :      0.54s CPU      0.57s WALL (     311 calls)

     PWSCF        :     6.92s CPU         6.98s WALL


   This run was terminated on:   0: 8:51  11Jun2017            

=------------------------------------------------------------------------------=
   JOB DONE.
=------------------------------------------------------------------------------=
