
     Program PWSCF v.6.1 (svn rev. 13369) starts on 11Jun2017 at  0: 8:37 

     This program is part of the open-source Quantum ESPRESSO suite
     for quantum simulation of materials; please cite
         "P. Giannozzi et al., J. Phys.:Condens. Matter 21 395502 (2009);
          URL http://www.quantum-espresso.org", 
     in publications or presentations arising from this work. More details at
     http://www.quantum-espresso.org/quote

     Parallel version (MPI), running on     1 processors
     Waiting for input...
     Reading input from standard input

     Current dimensions of program PWSCF are:
     Max number of different atomic species (ntypx) = 10
     Max number of k-points (npk) =  40000
     Max angular momentum in pseudopotentials (lmaxx) =  3
     Message from routine iosys:
     minimal I/O required, wf_collect reset to FALSE

     gamma-point specific algorithms are used

     Subspace diagonalization in iterative solution of the eigenvalue problem:
     a serial algorithm will be used


     G-vector sticks info
     --------------------
     sticks:   dense  smooth     PW     G-vecs:    dense   smooth      PW
     Sum        3761    3761    949               172821   172821   21631



     bravais-lattice index     =            0
     lattice parameter (alat)  =      16.0000  a.u.
     unit-cell volume          =    4096.0000 (a.u.)^3
     number of atoms/cell      =            4
     number of atomic types    =            2
     number of electrons       =         8.00
     number of Kohn-Sham states=            4
     kinetic-energy cutoff     =      46.0000  Ry
     charge density cutoff     =     184.0000  Ry
     convergence threshold     =      1.0E-06
     mixing beta               =       0.7000
     number of iterations used =            8  plain     mixing
     Exchange-correlation      = PBE ( 1  4  3  4 0 0)

     celldm(1)=  16.000000  celldm(2)=   0.000000  celldm(3)=   0.000000
     celldm(4)=   0.000000  celldm(5)=   0.000000  celldm(6)=   0.000000

     crystal axes: (cart. coord. in units of alat)
               a(1) = (   1.000000   0.000000   0.000000 )  
               a(2) = (   0.000000   1.000000   0.000000 )  
               a(3) = (   0.000000   0.000000   1.000000 )  

     reciprocal axes: (cart. coord. in units 2 pi/alat)
               b(1) = (  1.000000  0.000000  0.000000 )  
               b(2) = (  0.000000  1.000000  0.000000 )  
               b(3) = (  0.000000  0.000000  1.000000 )  


     PseudoPot. # 1 for  H read from file:
     ../GTH_PBE_2015/H.q1.gth
     MD5 check sum: d076fc93ed96f5cc3314eceb273f8fe5
     Pseudo is Norm-conserving, Zval =  1.0
     GTH norm-conserving PP, generated by Matthias Krack
     Using radial grid of  929 points,  0 beta functions with: 

     PseudoPot. # 2 for  N read from file:
     ../GTH_PBE_2015/N.q5.gth
     MD5 check sum: 1476ec718fff327fe2c88f248f2514f7
     Pseudo is Norm-conserving + core correction, Zval =  5.0
     New Soft-Accurate NLCC pseudopotentials, generated by Santanu Saha
     Using radial grid of 1085 points,  2 beta functions with: 
                l(1) =   0
                l(2) =   0

     atomic species   valence    mass     pseudopotential
        H              1.00     1.01000      H( 1.00)
        N              5.00    14.01000      N( 1.00)

     No symmetry found



   Cartesian axes

     site n.     atom                  positions (alat units)
         1           N   tau(   1) = (   0.4503085   0.4518267   0.4524722  )
         2           H   tau(   2) = (   0.5667983   0.4305661   0.4292002  )
         3           H   tau(   3) = (   0.4332017   0.5694339   0.4316014  )
         4           H   tau(   4) = (   0.4365324   0.4366156   0.5707998  )

     number of k points=     1
                       cart. coord. in units 2pi/alat
        k(    1) = (   0.0000000   0.0000000   0.0000000), wk =   2.0000000

     Dense  grid:    86411 G-vectors     FFT dimensions: (  72,  72,  72)

     Estimated max dynamical RAM per process >      65.18MB

     Initial potential from superposition of free atoms

     negative rho (up, down):  2.819E-08 0.000E+00
     Starting wfc are random

     total cpu time spent up to now is        0.6 secs

     per-process dynamical memory:    55.9 Mb

     Self-consistent Calculation

     iteration #  1     ecut=    46.00 Ry     beta=0.70
     Davidson diagonalization with overlap
     ethr =  1.00E-02,  avg # of iterations =  9.0

     total cpu time spent up to now is        1.5 secs

     total energy              =     -19.23196516 Ry
     Harris-Foulkes estimate   =     -27.02041358 Ry
     estimated scf accuracy    <       9.88523049 Ry

     iteration #  2     ecut=    46.00 Ry     beta=0.70
     Davidson diagonalization with overlap
     ethr =  1.00E-02,  avg # of iterations =  6.0

     total cpu time spent up to now is        2.2 secs

     total energy              =     -23.83691841 Ry
     Harris-Foulkes estimate   =     -27.77766096 Ry
     estimated scf accuracy    <       7.61425524 Ry

     iteration #  3     ecut=    46.00 Ry     beta=0.70
     Davidson diagonalization with overlap
     ethr =  1.00E-02,  avg # of iterations =  3.0

     total cpu time spent up to now is        2.9 secs

     total energy              =     -24.62021387 Ry
     Harris-Foulkes estimate   =     -24.77201987 Ry
     estimated scf accuracy    <       0.55569736 Ry

     iteration #  4     ecut=    46.00 Ry     beta=0.70
     Davidson diagonalization with overlap
     ethr =  6.95E-03,  avg # of iterations =  1.0

     total cpu time spent up to now is        3.3 secs

     total energy              =     -24.44255586 Ry
     Harris-Foulkes estimate   =     -24.62608598 Ry
     estimated scf accuracy    <       0.28444189 Ry

     iteration #  5     ecut=    46.00 Ry     beta=0.70
     Davidson diagonalization with overlap
     ethr =  3.56E-03,  avg # of iterations =  2.0

     total cpu time spent up to now is        3.8 secs

     total energy              =     -24.48409213 Ry
     Harris-Foulkes estimate   =     -24.49350985 Ry
     estimated scf accuracy    <       0.01526398 Ry

     iteration #  6     ecut=    46.00 Ry     beta=0.70
     Davidson diagonalization with overlap
     ethr =  1.91E-04,  avg # of iterations =  2.0

     total cpu time spent up to now is        4.3 secs

     total energy              =     -24.48876353 Ry
     Harris-Foulkes estimate   =     -24.49114043 Ry
     estimated scf accuracy    <       0.00510120 Ry

     iteration #  7     ecut=    46.00 Ry     beta=0.70
     Davidson diagonalization with overlap
     ethr =  6.38E-05,  avg # of iterations =  2.0

     negative rho (up, down):  4.155E-04 0.000E+00

     total cpu time spent up to now is        4.8 secs

     total energy              =     -24.48959010 Ry
     Harris-Foulkes estimate   =     -24.48954949 Ry
     estimated scf accuracy    <       0.00005349 Ry

     iteration #  8     ecut=    46.00 Ry     beta=0.70
     Davidson diagonalization with overlap
     ethr =  6.69E-07,  avg # of iterations =  3.0

     negative rho (up, down):  3.470E-04 0.000E+00

     total cpu time spent up to now is        5.3 secs

     total energy              =     -24.48960617 Ry
     Harris-Foulkes estimate   =     -24.48962672 Ry
     estimated scf accuracy    <       0.00003947 Ry

     iteration #  9     ecut=    46.00 Ry     beta=0.70
     Davidson diagonalization with overlap
     ethr =  4.93E-07,  avg # of iterations =  2.0

     total cpu time spent up to now is        5.8 secs

     End of self-consistent calculation

          k = 0.0000 0.0000 0.0000 ( 10816 PWs)   bands (ev):

   -21.1458 -10.9718 -10.9400  -5.9396

     highest occupied level (ev):    -5.9396

!    total energy              =     -24.48961366 Ry
     Harris-Foulkes estimate   =     -24.48961539 Ry
     estimated scf accuracy    <       0.00000080 Ry

     The total energy is the sum of the following terms:

     one-electron contribution =     -46.69962166 Ry
     hartree contribution      =      24.56808310 Ry
     xc contribution           =      -8.60608935 Ry
     ewald contribution        =       6.24801425 Ry

     convergence has been achieved in   9 iterations

     Forces acting on atoms (cartesian axes, Ry/au):

     atom    1 type  2   force =    -0.00483461   -0.00455561   -0.01341397
     atom    2 type  1   force =     0.00501217    0.00007503    0.00029786
     atom    3 type  1   force =     0.00018875    0.00520916    0.00013858
     atom    4 type  1   force =    -0.00036631   -0.00072858    0.01297753

     Total force =     0.021108     Total SCF correction =     0.000650

     init_run     :      0.52s CPU      0.57s WALL (       1 calls)
     electrons    :      5.14s CPU      5.18s WALL (       1 calls)
     forces       :      0.51s CPU      0.53s WALL (       1 calls)

     Called by init_run:
     wfcinit      :      0.05s CPU      0.05s WALL (       1 calls)
     potinit      :      0.33s CPU      0.36s WALL (       1 calls)

     Called by electrons:
     c_bands      :      1.50s CPU      1.51s WALL (       9 calls)
     sum_band     :      0.46s CPU      0.46s WALL (       9 calls)
     v_of_rho     :      2.97s CPU      3.01s WALL (      10 calls)
     mix_rho      :      0.38s CPU      0.39s WALL (       9 calls)

     Called by c_bands:
     init_us_2    :      0.03s CPU      0.03s WALL (      19 calls)
     regterg      :      1.48s CPU      1.50s WALL (       9 calls)

     Called by sum_band:

     Called by *egterg:
     h_psi        :      1.42s CPU      1.43s WALL (      40 calls)
     g_psi        :      0.01s CPU      0.02s WALL (      30 calls)
     rdiaghg      :      0.00s CPU      0.01s WALL (      39 calls)

     Called by h_psi:
     h_psi:pot    :      1.40s CPU      1.42s WALL (      40 calls)
     h_psi:calbec :      0.02s CPU      0.01s WALL (      40 calls)
     vloc_psi     :      1.38s CPU      1.41s WALL (      40 calls)
     add_vuspsi   :      0.00s CPU      0.00s WALL (      40 calls)

     General routines
     calbec       :      0.02s CPU      0.01s WALL (      44 calls)
     fft          :      1.27s CPU      1.31s WALL (     120 calls)
     fftw         :      1.31s CPU      1.30s WALL (     168 calls)

     Parallel routines
     fft_scatter  :      0.52s CPU      0.52s WALL (     288 calls)

     PWSCF        :     6.19s CPU         6.30s WALL


   This run was terminated on:   0: 8:44  11Jun2017            

=------------------------------------------------------------------------------=
   JOB DONE.
=------------------------------------------------------------------------------=
