
     Program PWSCF v.6.1 (svn rev. 13369) starts on 11Jun2017 at  0: 8:19 

     This program is part of the open-source Quantum ESPRESSO suite
     for quantum simulation of materials; please cite
         "P. Giannozzi et al., J. Phys.:Condens. Matter 21 395502 (2009);
          URL http://www.quantum-espresso.org", 
     in publications or presentations arising from this work. More details at
     http://www.quantum-espresso.org/quote

     Parallel version (MPI), running on     1 processors
     Waiting for input...
     Reading input from standard input

     Current dimensions of program PWSCF are:
     Max number of different atomic species (ntypx) = 10
     Max number of k-points (npk) =  40000
     Max angular momentum in pseudopotentials (lmaxx) =  3
     Message from routine iosys:
     minimal I/O required, wf_collect reset to FALSE

     gamma-point specific algorithms are used

     Subspace diagonalization in iterative solution of the eigenvalue problem:
     a serial algorithm will be used


     G-vector sticks info
     --------------------
     sticks:   dense  smooth     PW     G-vecs:    dense   smooth      PW
     Sum        3265    3265    805               140089   140089   17461



     bravais-lattice index     =            0
     lattice parameter (alat)  =      16.0000  a.u.
     unit-cell volume          =    4096.0000 (a.u.)^3
     number of atoms/cell      =            4
     number of atomic types    =            2
     number of electrons       =         8.00
     number of Kohn-Sham states=            4
     kinetic-energy cutoff     =      40.0000  Ry
     charge density cutoff     =     160.0000  Ry
     convergence threshold     =      1.0E-06
     mixing beta               =       0.7000
     number of iterations used =            8  plain     mixing
     Exchange-correlation      = PBE ( 1  4  3  4 0 0)

     celldm(1)=  16.000000  celldm(2)=   0.000000  celldm(3)=   0.000000
     celldm(4)=   0.000000  celldm(5)=   0.000000  celldm(6)=   0.000000

     crystal axes: (cart. coord. in units of alat)
               a(1) = (   1.000000   0.000000   0.000000 )  
               a(2) = (   0.000000   1.000000   0.000000 )  
               a(3) = (   0.000000   0.000000   1.000000 )  

     reciprocal axes: (cart. coord. in units 2 pi/alat)
               b(1) = (  1.000000  0.000000  0.000000 )  
               b(2) = (  0.000000  1.000000  0.000000 )  
               b(3) = (  0.000000  0.000000  1.000000 )  


     PseudoPot. # 1 for  H read from file:
     ../GTH_PBE_2015/H.q1.gth
     MD5 check sum: d076fc93ed96f5cc3314eceb273f8fe5
     Pseudo is Norm-conserving, Zval =  1.0
     GTH norm-conserving PP, generated by Matthias Krack
     Using radial grid of  929 points,  0 beta functions with: 

     PseudoPot. # 2 for  N read from file:
     ../GTH_PBE_2015/N.q5.gth
     MD5 check sum: 1476ec718fff327fe2c88f248f2514f7
     Pseudo is Norm-conserving + core correction, Zval =  5.0
     New Soft-Accurate NLCC pseudopotentials, generated by Santanu Saha
     Using radial grid of 1085 points,  2 beta functions with: 
                l(1) =   0
                l(2) =   0

     atomic species   valence    mass     pseudopotential
        H              1.00     1.01000      H( 1.00)
        N              5.00    14.01000      N( 1.00)

     No symmetry found



   Cartesian axes

     site n.     atom                  positions (alat units)
         1           N   tau(   1) = (   0.4503085   0.4518267   0.4524722  )
         2           H   tau(   2) = (   0.5667983   0.4305661   0.4292002  )
         3           H   tau(   3) = (   0.4332017   0.5694339   0.4316014  )
         4           H   tau(   4) = (   0.4365324   0.4366156   0.5707998  )

     number of k points=     1
                       cart. coord. in units 2pi/alat
        k(    1) = (   0.0000000   0.0000000   0.0000000), wk =   2.0000000

     Dense  grid:    70045 G-vectors     FFT dimensions: (  72,  72,  72)

     Estimated max dynamical RAM per process >      57.69MB

     Initial potential from superposition of free atoms

     negative rho (up, down):  2.761E-08 0.000E+00
     Starting wfc are random

     total cpu time spent up to now is        0.5 secs

     per-process dynamical memory:    52.8 Mb

     Self-consistent Calculation

     iteration #  1     ecut=    40.00 Ry     beta=0.70
     Davidson diagonalization with overlap
     ethr =  1.00E-02,  avg # of iterations =  9.0

     total cpu time spent up to now is        1.3 secs

     total energy              =     -19.15329472 Ry
     Harris-Foulkes estimate   =     -27.02092995 Ry
     estimated scf accuracy    <       9.96015831 Ry

     iteration #  2     ecut=    40.00 Ry     beta=0.70
     Davidson diagonalization with overlap
     ethr =  1.00E-02,  avg # of iterations =  6.0

     total cpu time spent up to now is        2.0 secs

     total energy              =     -23.79258275 Ry
     Harris-Foulkes estimate   =     -27.65036709 Ry
     estimated scf accuracy    <       7.42818663 Ry

     iteration #  3     ecut=    40.00 Ry     beta=0.70
     Davidson diagonalization with overlap
     ethr =  1.00E-02,  avg # of iterations =  3.0

     total cpu time spent up to now is        2.6 secs

     total energy              =     -24.54125327 Ry
     Harris-Foulkes estimate   =     -24.69615547 Ry
     estimated scf accuracy    <       0.55114413 Ry

     iteration #  4     ecut=    40.00 Ry     beta=0.70
     Davidson diagonalization with overlap
     ethr =  6.89E-03,  avg # of iterations =  1.0

     total cpu time spent up to now is        3.0 secs

     total energy              =     -24.36989220 Ry
     Harris-Foulkes estimate   =     -24.54748730 Ry
     estimated scf accuracy    <       0.27505153 Ry

     iteration #  5     ecut=    40.00 Ry     beta=0.70
     Davidson diagonalization with overlap
     ethr =  3.44E-03,  avg # of iterations =  2.0

     total cpu time spent up to now is        3.4 secs

     total energy              =     -24.41019467 Ry
     Harris-Foulkes estimate   =     -24.41934362 Ry
     estimated scf accuracy    <       0.01480232 Ry

     iteration #  6     ecut=    40.00 Ry     beta=0.70
     Davidson diagonalization with overlap
     ethr =  1.85E-04,  avg # of iterations =  2.0

     total cpu time spent up to now is        3.9 secs

     total energy              =     -24.41471874 Ry
     Harris-Foulkes estimate   =     -24.41692862 Ry
     estimated scf accuracy    <       0.00471626 Ry

     iteration #  7     ecut=    40.00 Ry     beta=0.70
     Davidson diagonalization with overlap
     ethr =  5.90E-05,  avg # of iterations =  2.0

     negative rho (up, down):  3.194E-04 0.000E+00

     total cpu time spent up to now is        4.4 secs

     total energy              =     -24.41550960 Ry
     Harris-Foulkes estimate   =     -24.41546575 Ry
     estimated scf accuracy    <       0.00004044 Ry

     iteration #  8     ecut=    40.00 Ry     beta=0.70
     Davidson diagonalization with overlap
     ethr =  5.06E-07,  avg # of iterations =  3.0

     negative rho (up, down):  2.780E-04 0.000E+00

     total cpu time spent up to now is        4.9 secs

     total energy              =     -24.41552116 Ry
     Harris-Foulkes estimate   =     -24.41553924 Ry
     estimated scf accuracy    <       0.00003489 Ry

     iteration #  9     ecut=    40.00 Ry     beta=0.70
     Davidson diagonalization with overlap
     ethr =  4.36E-07,  avg # of iterations =  2.0

     total cpu time spent up to now is        5.4 secs

     End of self-consistent calculation

          k = 0.0000 0.0000 0.0000 (  8731 PWs)   bands (ev):

   -21.3007 -10.9622 -10.9306  -5.9380

     highest occupied level (ev):    -5.9380

!    total energy              =     -24.41552893 Ry
     Harris-Foulkes estimate   =     -24.41552956 Ry
     estimated scf accuracy    <       0.00000086 Ry

     The total energy is the sum of the following terms:

     one-electron contribution =     -46.55657501 Ry
     hartree contribution      =      24.47475936 Ry
     xc contribution           =      -8.58172753 Ry
     ewald contribution        =       6.24801425 Ry

     convergence has been achieved in   9 iterations

     Forces acting on atoms (cartesian axes, Ry/au):

     atom    1 type  2   force =    -0.01423397   -0.01329551   -0.02223136
     atom    2 type  1   force =     0.01453842   -0.00055411   -0.00056804
     atom    3 type  1   force =     0.00000192    0.01470450   -0.00048657
     atom    4 type  1   force =    -0.00030638   -0.00085487    0.02328597

     Total force =     0.042955     Total SCF correction =     0.000697

     init_run     :      0.44s CPU      0.49s WALL (       1 calls)
     electrons    :      4.77s CPU      4.87s WALL (       1 calls)
     forces       :      0.46s CPU      0.49s WALL (       1 calls)

     Called by init_run:
     wfcinit      :      0.04s CPU      0.04s WALL (       1 calls)
     potinit      :      0.28s CPU      0.31s WALL (       1 calls)

     Called by electrons:
     c_bands      :      1.39s CPU      1.39s WALL (       9 calls)
     sum_band     :      0.43s CPU      0.43s WALL (       9 calls)
     v_of_rho     :      2.79s CPU      2.89s WALL (      10 calls)
     mix_rho      :      0.31s CPU      0.32s WALL (       9 calls)

     Called by c_bands:
     init_us_2    :      0.03s CPU      0.02s WALL (      19 calls)
     regterg      :      1.39s CPU      1.38s WALL (       9 calls)

     Called by sum_band:

     Called by *egterg:
     h_psi        :      1.34s CPU      1.33s WALL (      40 calls)
     g_psi        :      0.01s CPU      0.01s WALL (      30 calls)
     rdiaghg      :      0.00s CPU      0.00s WALL (      39 calls)

     Called by h_psi:
     h_psi:pot    :      1.33s CPU      1.33s WALL (      40 calls)
     h_psi:calbec :      0.02s CPU      0.01s WALL (      40 calls)
     vloc_psi     :      1.31s CPU      1.32s WALL (      40 calls)
     add_vuspsi   :      0.00s CPU      0.00s WALL (      40 calls)

     General routines
     calbec       :      0.02s CPU      0.01s WALL (      44 calls)
     fft          :      1.14s CPU      1.21s WALL (     120 calls)
     fftw         :      1.18s CPU      1.21s WALL (     170 calls)

     Parallel routines
     fft_scatter  :      0.43s CPU      0.48s WALL (     290 calls)

     PWSCF        :     5.68s CPU         5.86s WALL


   This run was terminated on:   0: 8:25  11Jun2017            

=------------------------------------------------------------------------------=
   JOB DONE.
=------------------------------------------------------------------------------=
