
     Program PWSCF v.6.1 (svn rev. 13369) starts on 11Jun2017 at  0: 7:51 

     This program is part of the open-source Quantum ESPRESSO suite
     for quantum simulation of materials; please cite
         "P. Giannozzi et al., J. Phys.:Condens. Matter 21 395502 (2009);
          URL http://www.quantum-espresso.org", 
     in publications or presentations arising from this work. More details at
     http://www.quantum-espresso.org/quote

     Parallel version (MPI), running on     1 processors
     Waiting for input...
     Reading input from standard input

     Current dimensions of program PWSCF are:
     Max number of different atomic species (ntypx) = 10
     Max number of k-points (npk) =  40000
     Max angular momentum in pseudopotentials (lmaxx) =  3
     Message from routine iosys:
     minimal I/O required, wf_collect reset to FALSE

     gamma-point specific algorithms are used

     Subspace diagonalization in iterative solution of the eigenvalue problem:
     a serial algorithm will be used


     G-vector sticks info
     --------------------
     sticks:   dense  smooth     PW     G-vecs:    dense   smooth      PW
     Sum        2109    2109    517                73223    73223    9093



     bravais-lattice index     =            0
     lattice parameter (alat)  =      16.0000  a.u.
     unit-cell volume          =    4096.0000 (a.u.)^3
     number of atoms/cell      =            4
     number of atomic types    =            2
     number of electrons       =         8.00
     number of Kohn-Sham states=            4
     kinetic-energy cutoff     =      26.0000  Ry
     charge density cutoff     =     104.0000  Ry
     convergence threshold     =      1.0E-06
     mixing beta               =       0.7000
     number of iterations used =            8  plain     mixing
     Exchange-correlation      = PBE ( 1  4  3  4 0 0)

     celldm(1)=  16.000000  celldm(2)=   0.000000  celldm(3)=   0.000000
     celldm(4)=   0.000000  celldm(5)=   0.000000  celldm(6)=   0.000000

     crystal axes: (cart. coord. in units of alat)
               a(1) = (   1.000000   0.000000   0.000000 )  
               a(2) = (   0.000000   1.000000   0.000000 )  
               a(3) = (   0.000000   0.000000   1.000000 )  

     reciprocal axes: (cart. coord. in units 2 pi/alat)
               b(1) = (  1.000000  0.000000  0.000000 )  
               b(2) = (  0.000000  1.000000  0.000000 )  
               b(3) = (  0.000000  0.000000  1.000000 )  


     PseudoPot. # 1 for  H read from file:
     ../GTH_PBE_2015/H.q1.gth
     MD5 check sum: d076fc93ed96f5cc3314eceb273f8fe5
     Pseudo is Norm-conserving, Zval =  1.0
     GTH norm-conserving PP, generated by Matthias Krack
     Using radial grid of  929 points,  0 beta functions with: 

     PseudoPot. # 2 for  N read from file:
     ../GTH_PBE_2015/N.q5.gth
     MD5 check sum: 1476ec718fff327fe2c88f248f2514f7
     Pseudo is Norm-conserving + core correction, Zval =  5.0
     New Soft-Accurate NLCC pseudopotentials, generated by Santanu Saha
     Using radial grid of 1085 points,  2 beta functions with: 
                l(1) =   0
                l(2) =   0

     atomic species   valence    mass     pseudopotential
        H              1.00     1.01000      H( 1.00)
        N              5.00    14.01000      N( 1.00)

     No symmetry found



   Cartesian axes

     site n.     atom                  positions (alat units)
         1           N   tau(   1) = (   0.4503085   0.4518267   0.4524722  )
         2           H   tau(   2) = (   0.5667983   0.4305661   0.4292002  )
         3           H   tau(   3) = (   0.4332017   0.5694339   0.4316014  )
         4           H   tau(   4) = (   0.4365324   0.4366156   0.5707998  )

     number of k points=     1
                       cart. coord. in units 2pi/alat
        k(    1) = (   0.0000000   0.0000000   0.0000000), wk =   2.0000000

     Dense  grid:    36612 G-vectors     FFT dimensions: (  54,  54,  54)

     Estimated max dynamical RAM per process >      27.58MB

     Check: negative/imaginary core charge=   -0.000006    0.000000

     Initial potential from superposition of free atoms

     negative rho (up, down):  5.020E-07 0.000E+00
     Starting wfc are random

     total cpu time spent up to now is        0.3 secs

     per-process dynamical memory:    28.1 Mb

     Self-consistent Calculation

     iteration #  1     ecut=    26.00 Ry     beta=0.70
     Davidson diagonalization with overlap
     ethr =  1.00E-02,  avg # of iterations = 10.0

     total cpu time spent up to now is        0.6 secs

     total energy              =     -18.65301635 Ry
     Harris-Foulkes estimate   =     -27.04493884 Ry
     estimated scf accuracy    <      10.46503614 Ry

     iteration #  2     ecut=    26.00 Ry     beta=0.70
     Davidson diagonalization with overlap
     ethr =  1.00E-02,  avg # of iterations =  6.0

     total cpu time spent up to now is        0.9 secs

     total energy              =     -23.51217198 Ry
     Harris-Foulkes estimate   =     -27.01598383 Ry
     estimated scf accuracy    <       6.64627537 Ry

     iteration #  3     ecut=    26.00 Ry     beta=0.70
     Davidson diagonalization with overlap
     ethr =  1.00E-02,  avg # of iterations =  3.0

     total cpu time spent up to now is        1.2 secs

     total energy              =     -24.09904469 Ry
     Harris-Foulkes estimate   =     -24.27722505 Ry
     estimated scf accuracy    <       0.53753370 Ry

     iteration #  4     ecut=    26.00 Ry     beta=0.70
     Davidson diagonalization with overlap
     ethr =  6.72E-03,  avg # of iterations =  1.0

     total cpu time spent up to now is        1.4 secs

     total energy              =     -23.95959386 Ry
     Harris-Foulkes estimate   =     -24.10836805 Ry
     estimated scf accuracy    <       0.22148179 Ry

     iteration #  5     ecut=    26.00 Ry     beta=0.70
     Davidson diagonalization with overlap
     ethr =  2.77E-03,  avg # of iterations =  2.0

     total cpu time spent up to now is        1.6 secs

     total energy              =     -23.99314379 Ry
     Harris-Foulkes estimate   =     -24.00105302 Ry
     estimated scf accuracy    <       0.01273673 Ry

     iteration #  6     ecut=    26.00 Ry     beta=0.70
     Davidson diagonalization with overlap
     ethr =  1.59E-04,  avg # of iterations =  2.0

     total cpu time spent up to now is        1.9 secs

     total energy              =     -23.99685446 Ry
     Harris-Foulkes estimate   =     -23.99856028 Ry
     estimated scf accuracy    <       0.00331928 Ry

     iteration #  7     ecut=    26.00 Ry     beta=0.70
     Davidson diagonalization with overlap
     ethr =  4.15E-05,  avg # of iterations =  2.0

     negative rho (up, down):  3.674E-05 0.000E+00

     total cpu time spent up to now is        2.1 secs

     total energy              =     -23.99740981 Ry
     Harris-Foulkes estimate   =     -23.99741752 Ry
     estimated scf accuracy    <       0.00001804 Ry

     iteration #  8     ecut=    26.00 Ry     beta=0.70
     Davidson diagonalization with overlap
     ethr =  2.26E-07,  avg # of iterations =  3.0

     negative rho (up, down):  7.521E-05 0.000E+00

     total cpu time spent up to now is        2.4 secs

     total energy              =     -23.99741272 Ry
     Harris-Foulkes estimate   =     -23.99742476 Ry
     estimated scf accuracy    <       0.00002249 Ry

     iteration #  9     ecut=    26.00 Ry     beta=0.70
     Davidson diagonalization with overlap
     ethr =  2.26E-07,  avg # of iterations =  2.0

     total cpu time spent up to now is        2.6 secs

     End of self-consistent calculation

          k = 0.0000 0.0000 0.0000 (  4547 PWs)   bands (ev):

   -22.2084 -10.8637 -10.8333  -5.9546

     highest occupied level (ev):    -5.9546

!    total energy              =     -23.99741791 Ry
     Harris-Foulkes estimate   =     -23.99741821 Ry
     estimated scf accuracy    <       0.00000056 Ry

     The total energy is the sum of the following terms:

     one-electron contribution =     -45.74149180 Ry
     hartree contribution      =      23.94221248 Ry
     xc contribution           =      -8.44615283 Ry
     ewald contribution        =       6.24801424 Ry

     convergence has been achieved in   9 iterations

     Forces acting on atoms (cartesian axes, Ry/au):

     atom    1 type  2   force =    -0.10009400   -0.09527614   -0.09930677
     atom    2 type  1   force =     0.11482545   -0.01263634   -0.01466391
     atom    3 type  1   force =    -0.00847123    0.11616177   -0.01265837
     atom    4 type  1   force =    -0.00626022   -0.00824929    0.12662905

     Total force =     0.269046     Total SCF correction =     0.000623

     init_run     :      0.27s CPU      0.28s WALL (       1 calls)
     electrons    :      2.32s CPU      2.33s WALL (       1 calls)
     forces       :      0.27s CPU      0.28s WALL (       1 calls)

     Called by init_run:
     wfcinit      :      0.02s CPU      0.02s WALL (       1 calls)
     potinit      :      0.19s CPU      0.20s WALL (       1 calls)

     Called by electrons:
     c_bands      :      0.55s CPU      0.55s WALL (       9 calls)
     sum_band     :      0.17s CPU      0.17s WALL (       9 calls)
     v_of_rho     :      1.59s CPU      1.59s WALL (      10 calls)
     mix_rho      :      0.14s CPU      0.15s WALL (       9 calls)

     Called by c_bands:
     init_us_2    :      0.01s CPU      0.01s WALL (      19 calls)
     regterg      :      0.54s CPU      0.54s WALL (       9 calls)

     Called by sum_band:

     Called by *egterg:
     h_psi        :      0.52s CPU      0.51s WALL (      41 calls)
     g_psi        :      0.01s CPU      0.01s WALL (      31 calls)
     rdiaghg      :      0.00s CPU      0.01s WALL (      40 calls)

     Called by h_psi:
     h_psi:pot    :      0.52s CPU      0.51s WALL (      41 calls)
     h_psi:calbec :      0.01s CPU      0.00s WALL (      41 calls)
     vloc_psi     :      0.51s CPU      0.50s WALL (      41 calls)
     add_vuspsi   :      0.00s CPU      0.00s WALL (      41 calls)

     General routines
     calbec       :      0.01s CPU      0.00s WALL (      45 calls)
     fft          :      0.46s CPU      0.46s WALL (     120 calls)
     fftw         :      0.42s CPU      0.46s WALL (     172 calls)

     Parallel routines
     fft_scatter  :      0.13s CPU      0.18s WALL (     292 calls)

     PWSCF        :     2.86s CPU         2.90s WALL


   This run was terminated on:   0: 7:54  11Jun2017            

=------------------------------------------------------------------------------=
   JOB DONE.
=------------------------------------------------------------------------------=
