
     Program PWSCF v.6.1 (svn rev. 13369) starts on 11Jun2017 at  0: 7:46 

     This program is part of the open-source Quantum ESPRESSO suite
     for quantum simulation of materials; please cite
         "P. Giannozzi et al., J. Phys.:Condens. Matter 21 395502 (2009);
          URL http://www.quantum-espresso.org", 
     in publications or presentations arising from this work. More details at
     http://www.quantum-espresso.org/quote

     Parallel version (MPI), running on     1 processors
     Waiting for input...
     Reading input from standard input

     Current dimensions of program PWSCF are:
     Max number of different atomic species (ntypx) = 10
     Max number of k-points (npk) =  40000
     Max angular momentum in pseudopotentials (lmaxx) =  3
     Message from routine iosys:
     minimal I/O required, wf_collect reset to FALSE

     gamma-point specific algorithms are used

     Subspace diagonalization in iterative solution of the eigenvalue problem:
     a serial algorithm will be used


     G-vector sticks info
     --------------------
     sticks:   dense  smooth     PW     G-vecs:    dense   smooth      PW
     Sum        1789    1789    437                57243    57243    7123



     bravais-lattice index     =            0
     lattice parameter (alat)  =      16.0000  a.u.
     unit-cell volume          =    4096.0000 (a.u.)^3
     number of atoms/cell      =            4
     number of atomic types    =            2
     number of electrons       =         8.00
     number of Kohn-Sham states=            4
     kinetic-energy cutoff     =      22.0000  Ry
     charge density cutoff     =      88.0000  Ry
     convergence threshold     =      1.0E-06
     mixing beta               =       0.7000
     number of iterations used =            8  plain     mixing
     Exchange-correlation      = PBE ( 1  4  3  4 0 0)

     celldm(1)=  16.000000  celldm(2)=   0.000000  celldm(3)=   0.000000
     celldm(4)=   0.000000  celldm(5)=   0.000000  celldm(6)=   0.000000

     crystal axes: (cart. coord. in units of alat)
               a(1) = (   1.000000   0.000000   0.000000 )  
               a(2) = (   0.000000   1.000000   0.000000 )  
               a(3) = (   0.000000   0.000000   1.000000 )  

     reciprocal axes: (cart. coord. in units 2 pi/alat)
               b(1) = (  1.000000  0.000000  0.000000 )  
               b(2) = (  0.000000  1.000000  0.000000 )  
               b(3) = (  0.000000  0.000000  1.000000 )  


     PseudoPot. # 1 for  H read from file:
     ../GTH_PBE_2015/H.q1.gth
     MD5 check sum: d076fc93ed96f5cc3314eceb273f8fe5
     Pseudo is Norm-conserving, Zval =  1.0
     GTH norm-conserving PP, generated by Matthias Krack
     Using radial grid of  929 points,  0 beta functions with: 

     PseudoPot. # 2 for  N read from file:
     ../GTH_PBE_2015/N.q5.gth
     MD5 check sum: 1476ec718fff327fe2c88f248f2514f7
     Pseudo is Norm-conserving + core correction, Zval =  5.0
     New Soft-Accurate NLCC pseudopotentials, generated by Santanu Saha
     Using radial grid of 1085 points,  2 beta functions with: 
                l(1) =   0
                l(2) =   0

     atomic species   valence    mass     pseudopotential
        H              1.00     1.01000      H( 1.00)
        N              5.00    14.01000      N( 1.00)

     No symmetry found



   Cartesian axes

     site n.     atom                  positions (alat units)
         1           N   tau(   1) = (   0.4503085   0.4518267   0.4524722  )
         2           H   tau(   2) = (   0.5667983   0.4305661   0.4292002  )
         3           H   tau(   3) = (   0.4332017   0.5694339   0.4316014  )
         4           H   tau(   4) = (   0.4365324   0.4366156   0.5707998  )

     number of k points=     1
                       cart. coord. in units 2pi/alat
        k(    1) = (   0.0000000   0.0000000   0.0000000), wk =   2.0000000

     Dense  grid:    28622 G-vectors     FFT dimensions: (  48,  48,  48)

     Estimated max dynamical RAM per process >      20.70MB

     Check: negative/imaginary core charge=   -0.000014    0.000000

     Initial potential from superposition of free atoms

     negative rho (up, down):  7.947E-06 0.000E+00
     Starting wfc are random

     total cpu time spent up to now is        0.2 secs

     per-process dynamical memory:    27.0 Mb

     Self-consistent Calculation

     iteration #  1     ecut=    22.00 Ry     beta=0.70
     Davidson diagonalization with overlap
     ethr =  1.00E-02,  avg # of iterations =  8.0

     total cpu time spent up to now is        0.4 secs

     total energy              =     -18.27726035 Ry
     Harris-Foulkes estimate   =     -27.04759641 Ry
     estimated scf accuracy    <      10.85695915 Ry

     iteration #  2     ecut=    22.00 Ry     beta=0.70
     Davidson diagonalization with overlap
     ethr =  1.00E-02,  avg # of iterations =  5.0

     total cpu time spent up to now is        0.6 secs

     total energy              =     -23.37915183 Ry
     Harris-Foulkes estimate   =     -26.73839546 Ry
     estimated scf accuracy    <       6.30387955 Ry

     iteration #  3     ecut=    22.00 Ry     beta=0.70
     Davidson diagonalization with overlap
     ethr =  1.00E-02,  avg # of iterations =  2.0

     total cpu time spent up to now is        0.8 secs

     total energy              =     -23.85196662 Ry
     Harris-Foulkes estimate   =     -24.06272981 Ry
     estimated scf accuracy    <       0.54804207 Ry

     iteration #  4     ecut=    22.00 Ry     beta=0.70
     Davidson diagonalization with overlap
     ethr =  6.85E-03,  avg # of iterations =  1.0

     total cpu time spent up to now is        0.9 secs

     total energy              =     -23.73478113 Ry
     Harris-Foulkes estimate   =     -23.86559006 Ry
     estimated scf accuracy    <       0.19737322 Ry

     iteration #  5     ecut=    22.00 Ry     beta=0.70
     Davidson diagonalization with overlap
     ethr =  2.47E-03,  avg # of iterations =  2.0

     total cpu time spent up to now is        1.1 secs

     total energy              =     -23.76601023 Ry
     Harris-Foulkes estimate   =     -23.77226424 Ry
     estimated scf accuracy    <       0.01003803 Ry

     iteration #  6     ecut=    22.00 Ry     beta=0.70
     Davidson diagonalization with overlap
     ethr =  1.25E-04,  avg # of iterations =  2.0

     total cpu time spent up to now is        1.3 secs

     total energy              =     -23.76864359 Ry
     Harris-Foulkes estimate   =     -23.77057854 Ry
     estimated scf accuracy    <       0.00314369 Ry

     iteration #  7     ecut=    22.00 Ry     beta=0.70
     Davidson diagonalization with overlap
     ethr =  3.93E-05,  avg # of iterations =  2.0

     negative rho (up, down):  4.391E-04 0.000E+00

     total cpu time spent up to now is        1.4 secs

     total energy              =     -23.76943730 Ry
     Harris-Foulkes estimate   =     -23.76945419 Ry
     estimated scf accuracy    <       0.00008572 Ry

     iteration #  8     ecut=    22.00 Ry     beta=0.70
     Davidson diagonalization with overlap
     ethr =  1.07E-06,  avg # of iterations =  2.0

     negative rho (up, down):  1.811E-05 0.000E+00

     total cpu time spent up to now is        1.6 secs

     total energy              =     -23.76943220 Ry
     Harris-Foulkes estimate   =     -23.76944654 Ry
     estimated scf accuracy    <       0.00003274 Ry

     iteration #  9     ecut=    22.00 Ry     beta=0.70
     Davidson diagonalization with overlap
     ethr =  4.09E-07,  avg # of iterations =  2.0

     negative rho (up, down):  2.382E-06 0.000E+00

     total cpu time spent up to now is        1.8 secs

     total energy              =     -23.76943525 Ry
     Harris-Foulkes estimate   =     -23.76943598 Ry
     estimated scf accuracy    <       0.00000217 Ry

     iteration # 10     ecut=    22.00 Ry     beta=0.70
     Davidson diagonalization with overlap
     ethr =  2.71E-08,  avg # of iterations =  2.0

     total cpu time spent up to now is        1.9 secs

     End of self-consistent calculation

          k = 0.0000 0.0000 0.0000 (  3562 PWs)   bands (ev):

   -22.7342 -10.7798 -10.7499  -5.9694

     highest occupied level (ev):    -5.9694

!    total energy              =     -23.76943539 Ry
     Harris-Foulkes estimate   =     -23.76943560 Ry
     estimated scf accuracy    <       0.00000029 Ry

     The total energy is the sum of the following terms:

     one-electron contribution =     -45.28915819 Ry
     hartree contribution      =      23.64426888 Ry
     xc contribution           =      -8.37256036 Ry
     ewald contribution        =       6.24801428 Ry

     convergence has been achieved in  10 iterations

     Forces acting on atoms (cartesian axes, Ry/au):

     atom    1 type  2   force =    -0.12307570   -0.11627302   -0.11646703
     atom    2 type  1   force =     0.13797434   -0.01410008   -0.01672681
     atom    3 type  1   force =    -0.00895082    0.13873257   -0.01422630
     atom    4 type  1   force =    -0.00594783   -0.00835947    0.14742013

     Total force =     0.321114     Total SCF correction =     0.000506

     init_run     :      0.20s CPU      0.21s WALL (       1 calls)
     electrons    :      1.69s CPU      1.70s WALL (       1 calls)
     forces       :      0.21s CPU      0.21s WALL (       1 calls)

     Called by init_run:
     wfcinit      :      0.01s CPU      0.01s WALL (       1 calls)
     potinit      :      0.14s CPU      0.15s WALL (       1 calls)

     Called by electrons:
     c_bands      :      0.33s CPU      0.32s WALL (      10 calls)
     sum_band     :      0.11s CPU      0.12s WALL (      10 calls)
     v_of_rho     :      1.22s CPU      1.23s WALL (      11 calls)
     mix_rho      :      0.12s CPU      0.13s WALL (      10 calls)

     Called by c_bands:
     init_us_2    :      0.01s CPU      0.01s WALL (      21 calls)
     regterg      :      0.32s CPU      0.32s WALL (      10 calls)

     Called by sum_band:

     Called by *egterg:
     h_psi        :      0.29s CPU      0.29s WALL (      39 calls)
     g_psi        :      0.01s CPU      0.01s WALL (      28 calls)
     rdiaghg      :      0.00s CPU      0.00s WALL (      38 calls)

     Called by h_psi:
     h_psi:pot    :      0.29s CPU      0.29s WALL (      39 calls)
     h_psi:calbec :      0.01s CPU      0.00s WALL (      39 calls)
     vloc_psi     :      0.28s CPU      0.28s WALL (      39 calls)
     add_vuspsi   :      0.00s CPU      0.00s WALL (      39 calls)

     General routines
     calbec       :      0.01s CPU      0.00s WALL (      43 calls)
     fft          :      0.31s CPU      0.32s WALL (     131 calls)
     fftw         :      0.26s CPU      0.26s WALL (     168 calls)

     Parallel routines
     fft_scatter  :      0.14s CPU      0.13s WALL (     299 calls)

     PWSCF        :     2.10s CPU         2.13s WALL


   This run was terminated on:   0: 7:48  11Jun2017            

=------------------------------------------------------------------------------=
   JOB DONE.
=------------------------------------------------------------------------------=
