
     Program PWSCF v.6.1 (svn rev. 13369) starts on 11Jun2017 at  0: 8:14 

     This program is part of the open-source Quantum ESPRESSO suite
     for quantum simulation of materials; please cite
         "P. Giannozzi et al., J. Phys.:Condens. Matter 21 395502 (2009);
          URL http://www.quantum-espresso.org", 
     in publications or presentations arising from this work. More details at
     http://www.quantum-espresso.org/quote

     Parallel version (MPI), running on     1 processors
     Waiting for input...
     Reading input from standard input

     Current dimensions of program PWSCF are:
     Max number of different atomic species (ntypx) = 10
     Max number of k-points (npk) =  40000
     Max angular momentum in pseudopotentials (lmaxx) =  3
     Message from routine iosys:
     minimal I/O required, wf_collect reset to FALSE

     gamma-point specific algorithms are used

     Subspace diagonalization in iterative solution of the eigenvalue problem:
     a serial algorithm will be used


     G-vector sticks info
     --------------------
     sticks:   dense  smooth     PW     G-vecs:    dense   smooth      PW
     Sum        3109    3109    777               129475   129475   16279



     bravais-lattice index     =            0
     lattice parameter (alat)  =      16.0000  a.u.
     unit-cell volume          =    4096.0000 (a.u.)^3
     number of atoms/cell      =            4
     number of atomic types    =            2
     number of electrons       =         8.00
     number of Kohn-Sham states=            4
     kinetic-energy cutoff     =      38.0000  Ry
     charge density cutoff     =     152.0000  Ry
     convergence threshold     =      1.0E-06
     mixing beta               =       0.7000
     number of iterations used =            8  plain     mixing
     Exchange-correlation      = PBE ( 1  4  3  4 0 0)

     celldm(1)=  16.000000  celldm(2)=   0.000000  celldm(3)=   0.000000
     celldm(4)=   0.000000  celldm(5)=   0.000000  celldm(6)=   0.000000

     crystal axes: (cart. coord. in units of alat)
               a(1) = (   1.000000   0.000000   0.000000 )  
               a(2) = (   0.000000   1.000000   0.000000 )  
               a(3) = (   0.000000   0.000000   1.000000 )  

     reciprocal axes: (cart. coord. in units 2 pi/alat)
               b(1) = (  1.000000  0.000000  0.000000 )  
               b(2) = (  0.000000  1.000000  0.000000 )  
               b(3) = (  0.000000  0.000000  1.000000 )  


     PseudoPot. # 1 for  H read from file:
     ../GTH_PBE_2015/H.q1.gth
     MD5 check sum: d076fc93ed96f5cc3314eceb273f8fe5
     Pseudo is Norm-conserving, Zval =  1.0
     GTH norm-conserving PP, generated by Matthias Krack
     Using radial grid of  929 points,  0 beta functions with: 

     PseudoPot. # 2 for  N read from file:
     ../GTH_PBE_2015/N.q5.gth
     MD5 check sum: 1476ec718fff327fe2c88f248f2514f7
     Pseudo is Norm-conserving + core correction, Zval =  5.0
     New Soft-Accurate NLCC pseudopotentials, generated by Santanu Saha
     Using radial grid of 1085 points,  2 beta functions with: 
                l(1) =   0
                l(2) =   0

     atomic species   valence    mass     pseudopotential
        H              1.00     1.01000      H( 1.00)
        N              5.00    14.01000      N( 1.00)

     No symmetry found



   Cartesian axes

     site n.     atom                  positions (alat units)
         1           N   tau(   1) = (   0.4503085   0.4518267   0.4524722  )
         2           H   tau(   2) = (   0.5667983   0.4305661   0.4292002  )
         3           H   tau(   3) = (   0.4332017   0.5694339   0.4316014  )
         4           H   tau(   4) = (   0.4365324   0.4366156   0.5707998  )

     number of k points=     1
                       cart. coord. in units 2pi/alat
        k(    1) = (   0.0000000   0.0000000   0.0000000), wk =   2.0000000

     Dense  grid:    64738 G-vectors     FFT dimensions: (  64,  64,  64)

     Estimated max dynamical RAM per process >      47.64MB

     Initial potential from superposition of free atoms

     negative rho (up, down):  2.624E-08 0.000E+00
     Starting wfc are random

     total cpu time spent up to now is        0.4 secs

     per-process dynamical memory:    44.0 Mb

     Self-consistent Calculation

     iteration #  1     ecut=    38.00 Ry     beta=0.70
     Davidson diagonalization with overlap
     ethr =  1.00E-02,  avg # of iterations = 11.0

     total cpu time spent up to now is        1.0 secs

     total energy              =     -19.12873958 Ry
     Harris-Foulkes estimate   =     -27.02698868 Ry
     estimated scf accuracy    <       9.98672717 Ry

     iteration #  2     ecut=    38.00 Ry     beta=0.70
     Davidson diagonalization with overlap
     ethr =  1.00E-02,  avg # of iterations =  6.0

     total cpu time spent up to now is        1.5 secs

     total energy              =     -23.77437333 Ry
     Harris-Foulkes estimate   =     -27.60116171 Ry
     estimated scf accuracy    <       7.35907065 Ry

     iteration #  3     ecut=    38.00 Ry     beta=0.70
     Davidson diagonalization with overlap
     ethr =  1.00E-02,  avg # of iterations =  3.0

     total cpu time spent up to now is        1.9 secs

     total energy              =     -24.50993599 Ry
     Harris-Foulkes estimate   =     -24.66582979 Ry
     estimated scf accuracy    <       0.55148733 Ry

     iteration #  4     ecut=    38.00 Ry     beta=0.70
     Davidson diagonalization with overlap
     ethr =  6.89E-03,  avg # of iterations =  1.0

     total cpu time spent up to now is        2.2 secs

     total energy              =     -24.34010900 Ry
     Harris-Foulkes estimate   =     -24.51630903 Ry
     estimated scf accuracy    <       0.27321019 Ry

     iteration #  5     ecut=    38.00 Ry     beta=0.70
     Davidson diagonalization with overlap
     ethr =  3.42E-03,  avg # of iterations =  2.0

     total cpu time spent up to now is        2.6 secs

     total energy              =     -24.38015276 Ry
     Harris-Foulkes estimate   =     -24.38909652 Ry
     estimated scf accuracy    <       0.01441834 Ry

     iteration #  6     ecut=    38.00 Ry     beta=0.70
     Davidson diagonalization with overlap
     ethr =  1.80E-04,  avg # of iterations =  2.0

     total cpu time spent up to now is        3.0 secs

     total energy              =     -24.38452906 Ry
     Harris-Foulkes estimate   =     -24.38688261 Ry
     estimated scf accuracy    <       0.00491615 Ry

     iteration #  7     ecut=    38.00 Ry     beta=0.70
     Davidson diagonalization with overlap
     ethr =  6.15E-05,  avg # of iterations =  2.0

     negative rho (up, down):  2.345E-04 0.000E+00

     total cpu time spent up to now is        3.4 secs

     total energy              =     -24.38539122 Ry
     Harris-Foulkes estimate   =     -24.38534339 Ry
     estimated scf accuracy    <       0.00002881 Ry

     iteration #  8     ecut=    38.00 Ry     beta=0.70
     Davidson diagonalization with overlap
     ethr =  3.60E-07,  avg # of iterations =  3.0

     negative rho (up, down):  2.422E-04 0.000E+00

     total cpu time spent up to now is        3.8 secs

     total energy              =     -24.38539908 Ry
     Harris-Foulkes estimate   =     -24.38541567 Ry
     estimated scf accuracy    <       0.00003135 Ry

     iteration #  9     ecut=    38.00 Ry     beta=0.70
     Davidson diagonalization with overlap
     ethr =  3.60E-07,  avg # of iterations =  2.0

     total cpu time spent up to now is        4.2 secs

     total energy              =     -24.38540651 Ry
     Harris-Foulkes estimate   =     -24.38540706 Ry
     estimated scf accuracy    <       0.00000112 Ry

     iteration # 10     ecut=    38.00 Ry     beta=0.70
     Davidson diagonalization with overlap
     ethr =  1.39E-08,  avg # of iterations =  2.0

     total cpu time spent up to now is        4.5 secs

     End of self-consistent calculation

          k = 0.0000 0.0000 0.0000 (  8140 PWs)   bands (ev):

   -21.3603 -10.9569 -10.9247  -5.9325

     highest occupied level (ev):    -5.9325

!    total energy              =     -24.38540671 Ry
     Harris-Foulkes estimate   =     -24.38540704 Ry
     estimated scf accuracy    <       0.00000043 Ry

     The total energy is the sum of the following terms:

     one-electron contribution =     -46.49269507 Ry
     hartree contribution      =      24.42972936 Ry
     xc contribution           =      -8.57045525 Ry
     ewald contribution        =       6.24801425 Ry

     convergence has been achieved in  10 iterations

     Forces acting on atoms (cartesian axes, Ry/au):

     atom    1 type  2   force =    -0.02100920   -0.01991176   -0.02897494
     atom    2 type  1   force =     0.02154170   -0.00093940   -0.00110865
     atom    3 type  1   force =    -0.00014651    0.02188542   -0.00090538
     atom    4 type  1   force =    -0.00038600   -0.00103427    0.03098897

     Total force =     0.059874     Total SCF correction =     0.000643

     init_run     :      0.37s CPU      0.39s WALL (       1 calls)
     electrons    :      4.06s CPU      4.08s WALL (       1 calls)
     forces       :      0.39s CPU      0.41s WALL (       1 calls)

     Called by init_run:
     wfcinit      :      0.03s CPU      0.03s WALL (       1 calls)
     potinit      :      0.24s CPU      0.25s WALL (       1 calls)

     Called by electrons:
     c_bands      :      1.18s CPU      1.19s WALL (      10 calls)
     sum_band     :      0.38s CPU      0.37s WALL (      10 calls)
     v_of_rho     :      2.28s CPU      2.30s WALL (      11 calls)
     mix_rho      :      0.34s CPU      0.34s WALL (      10 calls)

     Called by c_bands:
     init_us_2    :      0.01s CPU      0.02s WALL (      21 calls)
     regterg      :      1.16s CPU      1.17s WALL (      10 calls)

     Called by sum_band:

     Called by *egterg:
     h_psi        :      1.10s CPU      1.12s WALL (      45 calls)
     g_psi        :      0.01s CPU      0.02s WALL (      34 calls)
     rdiaghg      :      0.00s CPU      0.01s WALL (      44 calls)

     Called by h_psi:
     h_psi:pot    :      1.10s CPU      1.11s WALL (      45 calls)
     h_psi:calbec :      0.01s CPU      0.01s WALL (      45 calls)
     vloc_psi     :      1.09s CPU      1.10s WALL (      45 calls)
     add_vuspsi   :      0.00s CPU      0.00s WALL (      45 calls)

     General routines
     calbec       :      0.01s CPU      0.01s WALL (      49 calls)
     fft          :      1.06s CPU      1.08s WALL (     131 calls)
     fftw         :      1.03s CPU      1.02s WALL (     188 calls)

     Parallel routines
     fft_scatter  :      0.55s CPU      0.55s WALL (     319 calls)

     PWSCF        :     4.83s CPU         4.90s WALL


   This run was terminated on:   0: 8:19  11Jun2017            

=------------------------------------------------------------------------------=
   JOB DONE.
=------------------------------------------------------------------------------=
