
     Program PWSCF v.6.1 (svn rev. 13369) starts on 11Jun2017 at  0: 8: 5 

     This program is part of the open-source Quantum ESPRESSO suite
     for quantum simulation of materials; please cite
         "P. Giannozzi et al., J. Phys.:Condens. Matter 21 395502 (2009);
          URL http://www.quantum-espresso.org", 
     in publications or presentations arising from this work. More details at
     http://www.quantum-espresso.org/quote

     Parallel version (MPI), running on     1 processors
     Waiting for input...
     Reading input from standard input

     Current dimensions of program PWSCF are:
     Max number of different atomic species (ntypx) = 10
     Max number of k-points (npk) =  40000
     Max angular momentum in pseudopotentials (lmaxx) =  3
     Message from routine iosys:
     minimal I/O required, wf_collect reset to FALSE

     gamma-point specific algorithms are used

     Subspace diagonalization in iterative solution of the eigenvalue problem:
     a serial algorithm will be used


     G-vector sticks info
     --------------------
     sticks:   dense  smooth     PW     G-vecs:    dense   smooth      PW
     Sum        2765    2765    681               109607   109607   13613



     bravais-lattice index     =            0
     lattice parameter (alat)  =      16.0000  a.u.
     unit-cell volume          =    4096.0000 (a.u.)^3
     number of atoms/cell      =            4
     number of atomic types    =            2
     number of electrons       =         8.00
     number of Kohn-Sham states=            4
     kinetic-energy cutoff     =      34.0000  Ry
     charge density cutoff     =     136.0000  Ry
     convergence threshold     =      1.0E-06
     mixing beta               =       0.7000
     number of iterations used =            8  plain     mixing
     Exchange-correlation      = PBE ( 1  4  3  4 0 0)

     celldm(1)=  16.000000  celldm(2)=   0.000000  celldm(3)=   0.000000
     celldm(4)=   0.000000  celldm(5)=   0.000000  celldm(6)=   0.000000

     crystal axes: (cart. coord. in units of alat)
               a(1) = (   1.000000   0.000000   0.000000 )  
               a(2) = (   0.000000   1.000000   0.000000 )  
               a(3) = (   0.000000   0.000000   1.000000 )  

     reciprocal axes: (cart. coord. in units 2 pi/alat)
               b(1) = (  1.000000  0.000000  0.000000 )  
               b(2) = (  0.000000  1.000000  0.000000 )  
               b(3) = (  0.000000  0.000000  1.000000 )  


     PseudoPot. # 1 for  H read from file:
     ../GTH_PBE_2015/H.q1.gth
     MD5 check sum: d076fc93ed96f5cc3314eceb273f8fe5
     Pseudo is Norm-conserving, Zval =  1.0
     GTH norm-conserving PP, generated by Matthias Krack
     Using radial grid of  929 points,  0 beta functions with: 

     PseudoPot. # 2 for  N read from file:
     ../GTH_PBE_2015/N.q5.gth
     MD5 check sum: 1476ec718fff327fe2c88f248f2514f7
     Pseudo is Norm-conserving + core correction, Zval =  5.0
     New Soft-Accurate NLCC pseudopotentials, generated by Santanu Saha
     Using radial grid of 1085 points,  2 beta functions with: 
                l(1) =   0
                l(2) =   0

     atomic species   valence    mass     pseudopotential
        H              1.00     1.01000      H( 1.00)
        N              5.00    14.01000      N( 1.00)

     No symmetry found



   Cartesian axes

     site n.     atom                  positions (alat units)
         1           N   tau(   1) = (   0.4503085   0.4518267   0.4524722  )
         2           H   tau(   2) = (   0.5667983   0.4305661   0.4292002  )
         3           H   tau(   3) = (   0.4332017   0.5694339   0.4316014  )
         4           H   tau(   4) = (   0.4365324   0.4366156   0.5707998  )

     number of k points=     1
                       cart. coord. in units 2pi/alat
        k(    1) = (   0.0000000   0.0000000   0.0000000), wk =   2.0000000

     Dense  grid:    54804 G-vectors     FFT dimensions: (  60,  60,  60)

     Estimated max dynamical RAM per process >      39.92MB

     Initial potential from superposition of free atoms

     negative rho (up, down):  2.351E-08 0.000E+00
     Starting wfc are random

     total cpu time spent up to now is        0.4 secs

     per-process dynamical memory:    37.1 Mb

     Self-consistent Calculation

     iteration #  1     ecut=    34.00 Ry     beta=0.70
     Davidson diagonalization with overlap
     ethr =  1.00E-02,  avg # of iterations =  9.0

     total cpu time spent up to now is        0.8 secs

     total energy              =     -19.10290396 Ry
     Harris-Foulkes estimate   =     -27.02399155 Ry
     estimated scf accuracy    <       9.98940812 Ry

     iteration #  2     ecut=    34.00 Ry     beta=0.70
     Davidson diagonalization with overlap
     ethr =  1.00E-02,  avg # of iterations =  5.0

     total cpu time spent up to now is        1.2 secs

     total energy              =     -23.72640841 Ry
     Harris-Foulkes estimate   =     -27.39316140 Ry
     estimated scf accuracy    <       7.01756647 Ry

     iteration #  3     ecut=    34.00 Ry     beta=0.70
     Davidson diagonalization with overlap
     ethr =  1.00E-02,  avg # of iterations =  3.0

     total cpu time spent up to now is        1.5 secs

     total energy              =     -24.40351285 Ry
     Harris-Foulkes estimate   =     -24.56308510 Ry
     estimated scf accuracy    <       0.52876945 Ry

     iteration #  4     ecut=    34.00 Ry     beta=0.70
     Davidson diagonalization with overlap
     ethr =  6.61E-03,  avg # of iterations =  1.0

     total cpu time spent up to now is        1.8 secs

     total energy              =     -24.25229720 Ry
     Harris-Foulkes estimate   =     -24.41066940 Ry
     estimated scf accuracy    <       0.24538971 Ry

     iteration #  5     ecut=    34.00 Ry     beta=0.70
     Davidson diagonalization with overlap
     ethr =  3.07E-03,  avg # of iterations =  2.0

     total cpu time spent up to now is        2.1 secs

     total energy              =     -24.28865181 Ry
     Harris-Foulkes estimate   =     -24.29728324 Ry
     estimated scf accuracy    <       0.01387612 Ry

     iteration #  6     ecut=    34.00 Ry     beta=0.70
     Davidson diagonalization with overlap
     ethr =  1.73E-04,  avg # of iterations =  2.0

     total cpu time spent up to now is        2.4 secs

     total energy              =     -24.29293593 Ry
     Harris-Foulkes estimate   =     -24.29477311 Ry
     estimated scf accuracy    <       0.00398753 Ry

     iteration #  7     ecut=    34.00 Ry     beta=0.70
     Davidson diagonalization with overlap
     ethr =  4.98E-05,  avg # of iterations =  2.0

     negative rho (up, down):  1.235E-04 0.000E+00

     total cpu time spent up to now is        2.7 secs

     total energy              =     -24.29362479 Ry
     Harris-Foulkes estimate   =     -24.29359035 Ry
     estimated scf accuracy    <       0.00002712 Ry

     iteration #  8     ecut=    34.00 Ry     beta=0.70
     Davidson diagonalization with overlap
     ethr =  3.39E-07,  avg # of iterations =  3.0

     negative rho (up, down):  1.738E-04 0.000E+00

     total cpu time spent up to now is        3.1 secs

     total energy              =     -24.29363174 Ry
     Harris-Foulkes estimate   =     -24.29364596 Ry
     estimated scf accuracy    <       0.00002684 Ry

     iteration #  9     ecut=    34.00 Ry     beta=0.70
     Davidson diagonalization with overlap
     ethr =  3.36E-07,  avg # of iterations =  2.0

     total cpu time spent up to now is        3.3 secs

     End of self-consistent calculation

          k = 0.0000 0.0000 0.0000 (  6807 PWs)   bands (ev):

   -21.5615 -10.9432 -10.9124  -5.9386

     highest occupied level (ev):    -5.9386

!    total energy              =     -24.29363826 Ry
     Harris-Foulkes estimate   =     -24.29363841 Ry
     estimated scf accuracy    <       0.00000079 Ry

     The total energy is the sum of the following terms:

     one-electron contribution =     -46.31897114 Ry
     hartree contribution      =      24.31903196 Ry
     xc contribution           =      -8.54171333 Ry
     ewald contribution        =       6.24801424 Ry

     convergence has been achieved in   9 iterations

     Forces acting on atoms (cartesian axes, Ry/au):

     atom    1 type  2   force =    -0.04023177   -0.03796377   -0.04612935
     atom    2 type  1   force =     0.04566690   -0.00463527   -0.00525963
     atom    3 type  1   force =    -0.00293846    0.04611127   -0.00457194
     atom    4 type  1   force =    -0.00249668   -0.00351223    0.05596092

     Total force =     0.112376     Total SCF correction =     0.000701

     init_run     :      0.33s CPU      0.34s WALL (       1 calls)
     electrons    :      2.95s CPU      2.97s WALL (       1 calls)
     forces       :      0.34s CPU      0.35s WALL (       1 calls)

     Called by init_run:
     wfcinit      :      0.02s CPU      0.02s WALL (       1 calls)
     potinit      :      0.22s CPU      0.23s WALL (       1 calls)

     Called by electrons:
     c_bands      :      0.70s CPU      0.70s WALL (       9 calls)
     sum_band     :      0.23s CPU      0.23s WALL (       9 calls)
     v_of_rho     :      1.94s CPU      1.95s WALL (      10 calls)
     mix_rho      :      0.22s CPU      0.22s WALL (       9 calls)

     Called by c_bands:
     init_us_2    :      0.02s CPU      0.02s WALL (      19 calls)
     regterg      :      0.69s CPU      0.69s WALL (       9 calls)

     Called by sum_band:

     Called by *egterg:
     h_psi        :      0.66s CPU      0.65s WALL (      39 calls)
     g_psi        :      0.02s CPU      0.01s WALL (      29 calls)
     rdiaghg      :      0.01s CPU      0.00s WALL (      38 calls)

     Called by h_psi:
     h_psi:pot    :      0.66s CPU      0.64s WALL (      39 calls)
     h_psi:calbec :      0.01s CPU      0.01s WALL (      39 calls)
     vloc_psi     :      0.64s CPU      0.64s WALL (      39 calls)
     add_vuspsi   :      0.00s CPU      0.00s WALL (      39 calls)

     General routines
     calbec       :      0.01s CPU      0.01s WALL (      43 calls)
     fft          :      0.59s CPU      0.61s WALL (     120 calls)
     fftw         :      0.54s CPU      0.56s WALL (     166 calls)

     Parallel routines
     fft_scatter  :      0.28s CPU      0.28s WALL (     286 calls)

     PWSCF        :     3.62s CPU         3.67s WALL


   This run was terminated on:   0: 8: 9  11Jun2017            

=------------------------------------------------------------------------------=
   JOB DONE.
=------------------------------------------------------------------------------=
