
     Program PWSCF v.6.1 (svn rev. 13369) starts on 11Jun2017 at  0: 7:45 

     This program is part of the open-source Quantum ESPRESSO suite
     for quantum simulation of materials; please cite
         "P. Giannozzi et al., J. Phys.:Condens. Matter 21 395502 (2009);
          URL http://www.quantum-espresso.org", 
     in publications or presentations arising from this work. More details at
     http://www.quantum-espresso.org/quote

     Parallel version (MPI), running on     1 processors
     Waiting for input...
     Reading input from standard input

     Current dimensions of program PWSCF are:
     Max number of different atomic species (ntypx) = 10
     Max number of k-points (npk) =  40000
     Max angular momentum in pseudopotentials (lmaxx) =  3
     Message from routine iosys:
     minimal I/O required, wf_collect reset to FALSE

     gamma-point specific algorithms are used

     Subspace diagonalization in iterative solution of the eigenvalue problem:
     a serial algorithm will be used


     G-vector sticks info
     --------------------
     sticks:   dense  smooth     PW     G-vecs:    dense   smooth      PW
     Sum        1617    1617    405                49509    49509    6187



     bravais-lattice index     =            0
     lattice parameter (alat)  =      16.0000  a.u.
     unit-cell volume          =    4096.0000 (a.u.)^3
     number of atoms/cell      =            4
     number of atomic types    =            2
     number of electrons       =         8.00
     number of Kohn-Sham states=            4
     kinetic-energy cutoff     =      20.0000  Ry
     charge density cutoff     =      80.0000  Ry
     convergence threshold     =      1.0E-06
     mixing beta               =       0.7000
     number of iterations used =            8  plain     mixing
     Exchange-correlation      = PBE ( 1  4  3  4 0 0)

     celldm(1)=  16.000000  celldm(2)=   0.000000  celldm(3)=   0.000000
     celldm(4)=   0.000000  celldm(5)=   0.000000  celldm(6)=   0.000000

     crystal axes: (cart. coord. in units of alat)
               a(1) = (   1.000000   0.000000   0.000000 )  
               a(2) = (   0.000000   1.000000   0.000000 )  
               a(3) = (   0.000000   0.000000   1.000000 )  

     reciprocal axes: (cart. coord. in units 2 pi/alat)
               b(1) = (  1.000000  0.000000  0.000000 )  
               b(2) = (  0.000000  1.000000  0.000000 )  
               b(3) = (  0.000000  0.000000  1.000000 )  


     PseudoPot. # 1 for  H read from file:
     ../GTH_PBE_2015/H.q1.gth
     MD5 check sum: d076fc93ed96f5cc3314eceb273f8fe5
     Pseudo is Norm-conserving, Zval =  1.0
     GTH norm-conserving PP, generated by Matthias Krack
     Using radial grid of  929 points,  0 beta functions with: 

     PseudoPot. # 2 for  N read from file:
     ../GTH_PBE_2015/N.q5.gth
     MD5 check sum: 1476ec718fff327fe2c88f248f2514f7
     Pseudo is Norm-conserving + core correction, Zval =  5.0
     New Soft-Accurate NLCC pseudopotentials, generated by Santanu Saha
     Using radial grid of 1085 points,  2 beta functions with: 
                l(1) =   0
                l(2) =   0

     atomic species   valence    mass     pseudopotential
        H              1.00     1.01000      H( 1.00)
        N              5.00    14.01000      N( 1.00)

     No symmetry found



   Cartesian axes

     site n.     atom                  positions (alat units)
         1           N   tau(   1) = (   0.4503085   0.4518267   0.4524722  )
         2           H   tau(   2) = (   0.5667983   0.4305661   0.4292002  )
         3           H   tau(   3) = (   0.4332017   0.5694339   0.4316014  )
         4           H   tau(   4) = (   0.4365324   0.4366156   0.5707998  )

     number of k points=     1
                       cart. coord. in units 2pi/alat
        k(    1) = (   0.0000000   0.0000000   0.0000000), wk =   2.0000000

     Dense  grid:    24755 G-vectors     FFT dimensions: (  45,  45,  45)

     Estimated max dynamical RAM per process >      17.59MB

     Check: negative/imaginary core charge=   -0.000022    0.000000

     Initial potential from superposition of free atoms

     negative rho (up, down):  3.429E-05 0.000E+00
     Starting wfc are random

     total cpu time spent up to now is        0.2 secs

     per-process dynamical memory:    23.2 Mb

     Self-consistent Calculation

     iteration #  1     ecut=    20.00 Ry     beta=0.70
     Davidson diagonalization with overlap
     ethr =  1.00E-02,  avg # of iterations =  8.0

     total cpu time spent up to now is        0.4 secs

     total energy              =     -18.04822707 Ry
     Harris-Foulkes estimate   =     -27.05584919 Ry
     estimated scf accuracy    <      11.10719067 Ry

     iteration #  2     ecut=    20.00 Ry     beta=0.70
     Davidson diagonalization with overlap
     ethr =  1.00E-02,  avg # of iterations =  6.0

     total cpu time spent up to now is        0.5 secs

     total energy              =     -23.26732736 Ry
     Harris-Foulkes estimate   =     -26.57645058 Ry
     estimated scf accuracy    <       6.16902285 Ry

     iteration #  3     ecut=    20.00 Ry     beta=0.70
     Davidson diagonalization with overlap
     ethr =  1.00E-02,  avg # of iterations =  2.0

     total cpu time spent up to now is        0.7 secs

     total energy              =     -23.69945194 Ry
     Harris-Foulkes estimate   =     -23.92633571 Ry
     estimated scf accuracy    <       0.55226897 Ry

     iteration #  4     ecut=    20.00 Ry     beta=0.70
     Davidson diagonalization with overlap
     ethr =  6.90E-03,  avg # of iterations =  1.0

     total cpu time spent up to now is        0.8 secs

     total energy              =     -23.59724427 Ry
     Harris-Foulkes estimate   =     -23.71487799 Ry
     estimated scf accuracy    <       0.18039679 Ry

     iteration #  5     ecut=    20.00 Ry     beta=0.70
     Davidson diagonalization with overlap
     ethr =  2.25E-03,  avg # of iterations =  2.0

     total cpu time spent up to now is        0.9 secs

     total energy              =     -23.62630688 Ry
     Harris-Foulkes estimate   =     -23.63266252 Ry
     estimated scf accuracy    <       0.00993126 Ry

     iteration #  6     ecut=    20.00 Ry     beta=0.70
     Davidson diagonalization with overlap
     ethr =  1.24E-04,  avg # of iterations =  2.0

     total cpu time spent up to now is        1.1 secs

     total energy              =     -23.62884592 Ry
     Harris-Foulkes estimate   =     -23.63111056 Ry
     estimated scf accuracy    <       0.00361836 Ry

     iteration #  7     ecut=    20.00 Ry     beta=0.70
     Davidson diagonalization with overlap
     ethr =  4.52E-05,  avg # of iterations =  2.0

     negative rho (up, down):  1.517E-04 0.000E+00

     total cpu time spent up to now is        1.2 secs

     total energy              =     -23.62975105 Ry
     Harris-Foulkes estimate   =     -23.62976670 Ry
     estimated scf accuracy    <       0.00008263 Ry

     iteration #  8     ecut=    20.00 Ry     beta=0.70
     Davidson diagonalization with overlap
     ethr =  1.03E-06,  avg # of iterations =  2.0

     negative rho (up, down):  3.024E-05 0.000E+00

     total cpu time spent up to now is        1.4 secs

     total energy              =     -23.62974263 Ry
     Harris-Foulkes estimate   =     -23.62976213 Ry
     estimated scf accuracy    <       0.00003515 Ry

     iteration #  9     ecut=    20.00 Ry     beta=0.70
     Davidson diagonalization with overlap
     ethr =  4.39E-07,  avg # of iterations =  2.0

     total cpu time spent up to now is        1.5 secs

     End of self-consistent calculation

          k = 0.0000 0.0000 0.0000 (  3094 PWs)   bands (ev):

   -23.0869 -10.7488 -10.7195  -5.9781

     highest occupied level (ev):    -5.9781

!    total energy              =     -23.62974988 Ry
     Harris-Foulkes estimate   =     -23.62974997 Ry
     estimated scf accuracy    <       0.00000020 Ry

     The total energy is the sum of the following terms:

     one-electron contribution =     -45.00966701 Ry
     hartree contribution      =      23.46051551 Ry
     xc contribution           =      -8.32861265 Ry
     ewald contribution        =       6.24801428 Ry

     convergence has been achieved in   9 iterations

     Forces acting on atoms (cartesian axes, Ry/au):

     atom    1 type  2   force =    -0.12918625   -0.12212356   -0.12163334
     atom    2 type  1   force =     0.14198766   -0.01324779   -0.01593000
     atom    3 type  1   force =    -0.00798017    0.14270341   -0.01342132
     atom    4 type  1   force =    -0.00482125   -0.00733207    0.15098467

     Total force =     0.332369     Total SCF correction =     0.000338

     init_run     :      0.17s CPU      0.19s WALL (       1 calls)
     electrons    :      1.30s CPU      1.30s WALL (       1 calls)
     forces       :      0.18s CPU      0.18s WALL (       1 calls)

     Called by init_run:
     wfcinit      :      0.01s CPU      0.01s WALL (       1 calls)
     potinit      :      0.12s CPU      0.12s WALL (       1 calls)

     Called by electrons:
     c_bands      :      0.28s CPU      0.27s WALL (       9 calls)
     sum_band     :      0.08s CPU      0.09s WALL (       9 calls)
     v_of_rho     :      0.92s CPU      0.93s WALL (      10 calls)
     mix_rho      :      0.09s CPU      0.09s WALL (       9 calls)

     Called by c_bands:
     init_us_2    :      0.00s CPU      0.01s WALL (      19 calls)
     regterg      :      0.27s CPU      0.26s WALL (       9 calls)

     Called by sum_band:

     Called by *egterg:
     h_psi        :      0.26s CPU      0.24s WALL (      37 calls)
     g_psi        :      0.00s CPU      0.00s WALL (      27 calls)
     rdiaghg      :      0.00s CPU      0.00s WALL (      36 calls)

     Called by h_psi:
     h_psi:pot    :      0.26s CPU      0.24s WALL (      37 calls)
     h_psi:calbec :      0.01s CPU      0.00s WALL (      37 calls)
     vloc_psi     :      0.24s CPU      0.24s WALL (      37 calls)
     add_vuspsi   :      0.00s CPU      0.00s WALL (      37 calls)

     General routines
     calbec       :      0.01s CPU      0.00s WALL (      41 calls)
     fft          :      0.25s CPU      0.26s WALL (     120 calls)
     fftw         :      0.24s CPU      0.23s WALL (     160 calls)

     Parallel routines
     fft_scatter  :      0.09s CPU      0.09s WALL (     280 calls)

     PWSCF        :     1.65s CPU         1.67s WALL


   This run was terminated on:   0: 7:46  11Jun2017            

=------------------------------------------------------------------------------=
   JOB DONE.
=------------------------------------------------------------------------------=
