
     Program PWSCF v.6.1 (svn rev. 13369) starts on 11Jun2017 at  0: 8:31 

     This program is part of the open-source Quantum ESPRESSO suite
     for quantum simulation of materials; please cite
         "P. Giannozzi et al., J. Phys.:Condens. Matter 21 395502 (2009);
          URL http://www.quantum-espresso.org", 
     in publications or presentations arising from this work. More details at
     http://www.quantum-espresso.org/quote

     Parallel version (MPI), running on     1 processors
     Waiting for input...
     Reading input from standard input

     Current dimensions of program PWSCF are:
     Max number of different atomic species (ntypx) = 10
     Max number of k-points (npk) =  40000
     Max angular momentum in pseudopotentials (lmaxx) =  3
     Message from routine iosys:
     minimal I/O required, wf_collect reset to FALSE

     gamma-point specific algorithms are used

     Subspace diagonalization in iterative solution of the eigenvalue problem:
     a serial algorithm will be used


     G-vector sticks info
     --------------------
     sticks:   dense  smooth     PW     G-vecs:    dense   smooth      PW
     Sum        3577    3577    885               161715   161715   20197



     bravais-lattice index     =            0
     lattice parameter (alat)  =      16.0000  a.u.
     unit-cell volume          =    4096.0000 (a.u.)^3
     number of atoms/cell      =            4
     number of atomic types    =            2
     number of electrons       =         8.00
     number of Kohn-Sham states=            4
     kinetic-energy cutoff     =      44.0000  Ry
     charge density cutoff     =     176.0000  Ry
     convergence threshold     =      1.0E-06
     mixing beta               =       0.7000
     number of iterations used =            8  plain     mixing
     Exchange-correlation      = PBE ( 1  4  3  4 0 0)

     celldm(1)=  16.000000  celldm(2)=   0.000000  celldm(3)=   0.000000
     celldm(4)=   0.000000  celldm(5)=   0.000000  celldm(6)=   0.000000

     crystal axes: (cart. coord. in units of alat)
               a(1) = (   1.000000   0.000000   0.000000 )  
               a(2) = (   0.000000   1.000000   0.000000 )  
               a(3) = (   0.000000   0.000000   1.000000 )  

     reciprocal axes: (cart. coord. in units 2 pi/alat)
               b(1) = (  1.000000  0.000000  0.000000 )  
               b(2) = (  0.000000  1.000000  0.000000 )  
               b(3) = (  0.000000  0.000000  1.000000 )  


     PseudoPot. # 1 for  H read from file:
     ../GTH_PBE_2015/H.q1.gth
     MD5 check sum: d076fc93ed96f5cc3314eceb273f8fe5
     Pseudo is Norm-conserving, Zval =  1.0
     GTH norm-conserving PP, generated by Matthias Krack
     Using radial grid of  929 points,  0 beta functions with: 

     PseudoPot. # 2 for  N read from file:
     ../GTH_PBE_2015/N.q5.gth
     MD5 check sum: 1476ec718fff327fe2c88f248f2514f7
     Pseudo is Norm-conserving + core correction, Zval =  5.0
     New Soft-Accurate NLCC pseudopotentials, generated by Santanu Saha
     Using radial grid of 1085 points,  2 beta functions with: 
                l(1) =   0
                l(2) =   0

     atomic species   valence    mass     pseudopotential
        H              1.00     1.01000      H( 1.00)
        N              5.00    14.01000      N( 1.00)

     No symmetry found



   Cartesian axes

     site n.     atom                  positions (alat units)
         1           N   tau(   1) = (   0.4503085   0.4518267   0.4524722  )
         2           H   tau(   2) = (   0.5667983   0.4305661   0.4292002  )
         3           H   tau(   3) = (   0.4332017   0.5694339   0.4316014  )
         4           H   tau(   4) = (   0.4365324   0.4366156   0.5707998  )

     number of k points=     1
                       cart. coord. in units 2pi/alat
        k(    1) = (   0.0000000   0.0000000   0.0000000), wk =   2.0000000

     Dense  grid:    80858 G-vectors     FFT dimensions: (  72,  72,  72)

     Estimated max dynamical RAM per process >      62.64MB

     Initial potential from superposition of free atoms

     negative rho (up, down):  2.789E-08 0.000E+00
     Starting wfc are random

     total cpu time spent up to now is        0.5 secs

     per-process dynamical memory:    54.9 Mb

     Self-consistent Calculation

     iteration #  1     ecut=    44.00 Ry     beta=0.70
     Davidson diagonalization with overlap
     ethr =  1.00E-02,  avg # of iterations =  9.0

     total cpu time spent up to now is        1.3 secs

     total energy              =     -19.28640558 Ry
     Harris-Foulkes estimate   =     -27.01035876 Ry
     estimated scf accuracy    <       9.80609965 Ry

     iteration #  2     ecut=    44.00 Ry     beta=0.70
     Davidson diagonalization with overlap
     ethr =  1.00E-02,  avg # of iterations =  5.0

     total cpu time spent up to now is        2.0 secs

     total energy              =     -23.82777261 Ry
     Harris-Foulkes estimate   =     -27.68159371 Ry
     estimated scf accuracy    <       7.43752799 Ry

     iteration #  3     ecut=    44.00 Ry     beta=0.70
     Davidson diagonalization with overlap
     ethr =  1.00E-02,  avg # of iterations =  3.0

     total cpu time spent up to now is        2.6 secs

     total energy              =     -24.58766708 Ry
     Harris-Foulkes estimate   =     -24.73816798 Ry
     estimated scf accuracy    <       0.53324917 Ry

     iteration #  4     ecut=    44.00 Ry     beta=0.70
     Davidson diagonalization with overlap
     ethr =  6.67E-03,  avg # of iterations =  1.0

     total cpu time spent up to now is        3.0 secs

     total energy              =     -24.42419353 Ry
     Harris-Foulkes estimate   =     -24.59387343 Ry
     estimated scf accuracy    <       0.26366903 Ry

     iteration #  5     ecut=    44.00 Ry     beta=0.70
     Davidson diagonalization with overlap
     ethr =  3.30E-03,  avg # of iterations =  2.0

     total cpu time spent up to now is        3.5 secs

     total energy              =     -24.46311386 Ry
     Harris-Foulkes estimate   =     -24.47244042 Ry
     estimated scf accuracy    <       0.01510333 Ry

     iteration #  6     ecut=    44.00 Ry     beta=0.70
     Davidson diagonalization with overlap
     ethr =  1.89E-04,  avg # of iterations =  2.0

     total cpu time spent up to now is        4.0 secs

     total energy              =     -24.46776469 Ry
     Harris-Foulkes estimate   =     -24.46979119 Ry
     estimated scf accuracy    <       0.00442253 Ry

     iteration #  7     ecut=    44.00 Ry     beta=0.70
     Davidson diagonalization with overlap
     ethr =  5.53E-05,  avg # of iterations =  2.0

     negative rho (up, down):  3.423E-04 0.000E+00

     total cpu time spent up to now is        4.5 secs

     total energy              =     -24.46847638 Ry
     Harris-Foulkes estimate   =     -24.46843972 Ry
     estimated scf accuracy    <       0.00005223 Ry

     iteration #  8     ecut=    44.00 Ry     beta=0.70
     Davidson diagonalization with overlap
     ethr =  6.53E-07,  avg # of iterations =  3.0

     negative rho (up, down):  3.292E-04 0.000E+00

     total cpu time spent up to now is        5.0 secs

     total energy              =     -24.46849221 Ry
     Harris-Foulkes estimate   =     -24.46851052 Ry
     estimated scf accuracy    <       0.00003633 Ry

     iteration #  9     ecut=    44.00 Ry     beta=0.70
     Davidson diagonalization with overlap
     ethr =  4.54E-07,  avg # of iterations =  2.0

     total cpu time spent up to now is        5.5 secs

     End of self-consistent calculation

          k = 0.0000 0.0000 0.0000 ( 10099 PWs)   bands (ev):

   -21.1882 -10.9678 -10.9359  -5.9379

     highest occupied level (ev):    -5.9379

!    total energy              =     -24.46849926 Ry
     Harris-Foulkes estimate   =     -24.46850040 Ry
     estimated scf accuracy    <       0.00000056 Ry

     The total energy is the sum of the following terms:

     one-electron contribution =     -46.65849830 Ry
     hartree contribution      =      24.54098706 Ry
     xc contribution           =      -8.59900228 Ry
     ewald contribution        =       6.24801425 Ry

     convergence has been achieved in   9 iterations

     Forces acting on atoms (cartesian axes, Ry/au):

     atom    1 type  2   force =    -0.00661966   -0.00621208   -0.01523967
     atom    2 type  1   force =     0.00630212    0.00007259    0.00026314
     atom    3 type  1   force =     0.00036306    0.00657754    0.00024692
     atom    4 type  1   force =    -0.00004551   -0.00043805    0.01472961

     Total force =     0.024800     Total SCF correction =     0.000514

     init_run     :      0.46s CPU      0.51s WALL (       1 calls)
     electrons    :      4.94s CPU      4.98s WALL (       1 calls)
     forces       :      0.56s CPU      0.57s WALL (       1 calls)

     Called by init_run:
     wfcinit      :      0.04s CPU      0.04s WALL (       1 calls)
     potinit      :      0.30s CPU      0.32s WALL (       1 calls)

     Called by electrons:
     c_bands      :      1.36s CPU      1.38s WALL (       9 calls)
     sum_band     :      0.44s CPU      0.44s WALL (       9 calls)
     v_of_rho     :      2.92s CPU      2.96s WALL (      10 calls)
     mix_rho      :      0.36s CPU      0.36s WALL (       9 calls)

     Called by c_bands:
     init_us_2    :      0.01s CPU      0.03s WALL (      19 calls)
     regterg      :      1.35s CPU      1.37s WALL (       9 calls)

     Called by sum_band:

     Called by *egterg:
     h_psi        :      1.30s CPU      1.31s WALL (      39 calls)
     g_psi        :      0.02s CPU      0.02s WALL (      29 calls)
     rdiaghg      :      0.00s CPU      0.00s WALL (      38 calls)

     Called by h_psi:
     h_psi:pot    :      1.28s CPU      1.30s WALL (      39 calls)
     h_psi:calbec :      0.00s CPU      0.01s WALL (      39 calls)
     vloc_psi     :      1.28s CPU      1.29s WALL (      39 calls)
     add_vuspsi   :      0.00s CPU      0.00s WALL (      39 calls)

     General routines
     calbec       :      0.00s CPU      0.01s WALL (      43 calls)
     fft          :      1.22s CPU      1.25s WALL (     120 calls)
     fftw         :      1.19s CPU      1.19s WALL (     164 calls)

     Parallel routines
     fft_scatter  :      0.48s CPU      0.49s WALL (     284 calls)

     PWSCF        :     5.97s CPU         6.08s WALL


   This run was terminated on:   0: 8:37  11Jun2017            

=------------------------------------------------------------------------------=
   JOB DONE.
=------------------------------------------------------------------------------=
