
     Program PWSCF v.6.1 (svn rev. 13369) starts on 11Jun2017 at  0: 8:25 

     This program is part of the open-source Quantum ESPRESSO suite
     for quantum simulation of materials; please cite
         "P. Giannozzi et al., J. Phys.:Condens. Matter 21 395502 (2009);
          URL http://www.quantum-espresso.org", 
     in publications or presentations arising from this work. More details at
     http://www.quantum-espresso.org/quote

     Parallel version (MPI), running on     1 processors
     Waiting for input...
     Reading input from standard input

     Current dimensions of program PWSCF are:
     Max number of different atomic species (ntypx) = 10
     Max number of k-points (npk) =  40000
     Max angular momentum in pseudopotentials (lmaxx) =  3
     Message from routine iosys:
     minimal I/O required, wf_collect reset to FALSE

     gamma-point specific algorithms are used

     Subspace diagonalization in iterative solution of the eigenvalue problem:
     a serial algorithm will be used


     G-vector sticks info
     --------------------
     sticks:   dense  smooth     PW     G-vecs:    dense   smooth      PW
     Sum        3409    3409    861               150555   150555   18853



     bravais-lattice index     =            0
     lattice parameter (alat)  =      16.0000  a.u.
     unit-cell volume          =    4096.0000 (a.u.)^3
     number of atoms/cell      =            4
     number of atomic types    =            2
     number of electrons       =         8.00
     number of Kohn-Sham states=            4
     kinetic-energy cutoff     =      42.0000  Ry
     charge density cutoff     =     168.0000  Ry
     convergence threshold     =      1.0E-06
     mixing beta               =       0.7000
     number of iterations used =            8  plain     mixing
     Exchange-correlation      = PBE ( 1  4  3  4 0 0)

     celldm(1)=  16.000000  celldm(2)=   0.000000  celldm(3)=   0.000000
     celldm(4)=   0.000000  celldm(5)=   0.000000  celldm(6)=   0.000000

     crystal axes: (cart. coord. in units of alat)
               a(1) = (   1.000000   0.000000   0.000000 )  
               a(2) = (   0.000000   1.000000   0.000000 )  
               a(3) = (   0.000000   0.000000   1.000000 )  

     reciprocal axes: (cart. coord. in units 2 pi/alat)
               b(1) = (  1.000000  0.000000  0.000000 )  
               b(2) = (  0.000000  1.000000  0.000000 )  
               b(3) = (  0.000000  0.000000  1.000000 )  


     PseudoPot. # 1 for  H read from file:
     ../GTH_PBE_2015/H.q1.gth
     MD5 check sum: d076fc93ed96f5cc3314eceb273f8fe5
     Pseudo is Norm-conserving, Zval =  1.0
     GTH norm-conserving PP, generated by Matthias Krack
     Using radial grid of  929 points,  0 beta functions with: 

     PseudoPot. # 2 for  N read from file:
     ../GTH_PBE_2015/N.q5.gth
     MD5 check sum: 1476ec718fff327fe2c88f248f2514f7
     Pseudo is Norm-conserving + core correction, Zval =  5.0
     New Soft-Accurate NLCC pseudopotentials, generated by Santanu Saha
     Using radial grid of 1085 points,  2 beta functions with: 
                l(1) =   0
                l(2) =   0

     atomic species   valence    mass     pseudopotential
        H              1.00     1.01000      H( 1.00)
        N              5.00    14.01000      N( 1.00)

     No symmetry found



   Cartesian axes

     site n.     atom                  positions (alat units)
         1           N   tau(   1) = (   0.4503085   0.4518267   0.4524722  )
         2           H   tau(   2) = (   0.5667983   0.4305661   0.4292002  )
         3           H   tau(   3) = (   0.4332017   0.5694339   0.4316014  )
         4           H   tau(   4) = (   0.4365324   0.4366156   0.5707998  )

     number of k points=     1
                       cart. coord. in units 2pi/alat
        k(    1) = (   0.0000000   0.0000000   0.0000000), wk =   2.0000000

     Dense  grid:    75278 G-vectors     FFT dimensions: (  72,  72,  72)

     Estimated max dynamical RAM per process >      60.09MB

     Initial potential from superposition of free atoms

     negative rho (up, down):  2.783E-08 0.000E+00
     Starting wfc are random

     total cpu time spent up to now is        0.5 secs

     per-process dynamical memory:    53.8 Mb

     Self-consistent Calculation

     iteration #  1     ecut=    42.00 Ry     beta=0.70
     Davidson diagonalization with overlap
     ethr =  1.00E-02,  avg # of iterations =  9.0

     total cpu time spent up to now is        1.3 secs

     total energy              =     -19.20182925 Ry
     Harris-Foulkes estimate   =     -27.02067047 Ry
     estimated scf accuracy    <       9.90827694 Ry

     iteration #  2     ecut=    42.00 Ry     beta=0.70
     Davidson diagonalization with overlap
     ethr =  1.00E-02,  avg # of iterations =  7.0

     total cpu time spent up to now is        2.0 secs

     total energy              =     -23.81252335 Ry
     Harris-Foulkes estimate   =     -27.69277679 Ry
     estimated scf accuracy    <       7.47616056 Ry

     iteration #  3     ecut=    42.00 Ry     beta=0.70
     Davidson diagonalization with overlap
     ethr =  1.00E-02,  avg # of iterations =  3.0

     total cpu time spent up to now is        2.6 secs

     total energy              =     -24.57278266 Ry
     Harris-Foulkes estimate   =     -24.72630193 Ry
     estimated scf accuracy    <       0.55245676 Ry

     iteration #  4     ecut=    42.00 Ry     beta=0.70
     Davidson diagonalization with overlap
     ethr =  6.91E-03,  avg # of iterations =  1.0

     total cpu time spent up to now is        3.1 secs

     total energy              =     -24.39881885 Ry
     Harris-Foulkes estimate   =     -24.57885864 Ry
     estimated scf accuracy    <       0.27879810 Ry

     iteration #  5     ecut=    42.00 Ry     beta=0.70
     Davidson diagonalization with overlap
     ethr =  3.48E-03,  avg # of iterations =  2.0

     total cpu time spent up to now is        3.5 secs

     total energy              =     -24.43958735 Ry
     Harris-Foulkes estimate   =     -24.44885456 Ry
     estimated scf accuracy    <       0.01500570 Ry

     iteration #  6     ecut=    42.00 Ry     beta=0.70
     Davidson diagonalization with overlap
     ethr =  1.88E-04,  avg # of iterations =  2.0

     total cpu time spent up to now is        4.0 secs

     total energy              =     -24.44417950 Ry
     Harris-Foulkes estimate   =     -24.44645654 Ry
     estimated scf accuracy    <       0.00486637 Ry

     iteration #  7     ecut=    42.00 Ry     beta=0.70
     Davidson diagonalization with overlap
     ethr =  6.08E-05,  avg # of iterations =  2.0

     negative rho (up, down):  2.801E-04 0.000E+00

     total cpu time spent up to now is        4.5 secs

     total energy              =     -24.44497916 Ry
     Harris-Foulkes estimate   =     -24.44493864 Ry
     estimated scf accuracy    <       0.00004704 Ry

     iteration #  8     ecut=    42.00 Ry     beta=0.70
     Davidson diagonalization with overlap
     ethr =  5.88E-07,  avg # of iterations =  3.0

     negative rho (up, down):  2.320E-04 0.000E+00

     total cpu time spent up to now is        5.1 secs

     total energy              =     -24.44499264 Ry
     Harris-Foulkes estimate   =     -24.44501125 Ry
     estimated scf accuracy    <       0.00003506 Ry

     iteration #  9     ecut=    42.00 Ry     beta=0.70
     Davidson diagonalization with overlap
     ethr =  4.38E-07,  avg # of iterations =  2.0

     total cpu time spent up to now is        5.6 secs

     total energy              =     -24.44500075 Ry
     Harris-Foulkes estimate   =     -24.44500170 Ry
     estimated scf accuracy    <       0.00000129 Ry

     iteration # 10     ecut=    42.00 Ry     beta=0.70
     Davidson diagonalization with overlap
     ethr =  1.62E-08,  avg # of iterations =  2.0

     total cpu time spent up to now is        6.0 secs

     End of self-consistent calculation

          k = 0.0000 0.0000 0.0000 (  9427 PWs)   bands (ev):

   -21.2343 -10.9646 -10.9324  -5.9336

     highest occupied level (ev):    -5.9336

!    total energy              =     -24.44500106 Ry
     Harris-Foulkes estimate   =     -24.44500137 Ry
     estimated scf accuracy    <       0.00000049 Ry

     The total energy is the sum of the following terms:

     one-electron contribution =     -46.60832523 Ry
     hartree contribution      =      24.50535685 Ry
     xc contribution           =      -8.59004693 Ry
     ewald contribution        =       6.24801425 Ry

     convergence has been achieved in  10 iterations

     Forces acting on atoms (cartesian axes, Ry/au):

     atom    1 type  2   force =    -0.01048841   -0.00992847   -0.01904122
     atom    2 type  1   force =     0.00978416    0.00031506    0.00040998
     atom    3 type  1   force =     0.00061470    0.00998085    0.00033813
     atom    4 type  1   force =     0.00008955   -0.00036744    0.01829311

     Total force =     0.033197     Total SCF correction =     0.000686

     init_run     :      0.46s CPU      0.50s WALL (       1 calls)
     electrons    :      5.47s CPU      5.53s WALL (       1 calls)
     forces       :      0.48s CPU      0.50s WALL (       1 calls)

     Called by init_run:
     wfcinit      :      0.04s CPU      0.04s WALL (       1 calls)
     potinit      :      0.29s CPU      0.32s WALL (       1 calls)

     Called by electrons:
     c_bands      :      1.54s CPU      1.54s WALL (      10 calls)
     sum_band     :      0.49s CPU      0.49s WALL (      10 calls)
     v_of_rho     :      3.18s CPU      3.24s WALL (      11 calls)
     mix_rho      :      0.41s CPU      0.42s WALL (      10 calls)

     Called by c_bands:
     init_us_2    :      0.03s CPU      0.03s WALL (      21 calls)
     regterg      :      1.52s CPU      1.52s WALL (      10 calls)

     Called by sum_band:

     Called by *egterg:
     h_psi        :      1.46s CPU      1.46s WALL (      44 calls)
     g_psi        :      0.01s CPU      0.02s WALL (      33 calls)
     rdiaghg      :      0.00s CPU      0.01s WALL (      43 calls)

     Called by h_psi:
     h_psi:pot    :      1.45s CPU      1.45s WALL (      44 calls)
     h_psi:calbec :      0.01s CPU      0.01s WALL (      44 calls)
     vloc_psi     :      1.44s CPU      1.44s WALL (      44 calls)
     add_vuspsi   :      0.00s CPU      0.00s WALL (      44 calls)

     General routines
     calbec       :      0.01s CPU      0.01s WALL (      48 calls)
     fft          :      1.32s CPU      1.36s WALL (     131 calls)
     fftw         :      1.34s CPU      1.33s WALL (     184 calls)

     Parallel routines
     fft_scatter  :      0.54s CPU      0.54s WALL (     315 calls)

     PWSCF        :     6.42s CPU         6.54s WALL


   This run was terminated on:   0: 8:31  11Jun2017            

=------------------------------------------------------------------------------=
   JOB DONE.
=------------------------------------------------------------------------------=
