
     Program PWSCF v.6.1 (svn rev. 13369) starts on 11Jun2017 at  0: 7:48 

     This program is part of the open-source Quantum ESPRESSO suite
     for quantum simulation of materials; please cite
         "P. Giannozzi et al., J. Phys.:Condens. Matter 21 395502 (2009);
          URL http://www.quantum-espresso.org", 
     in publications or presentations arising from this work. More details at
     http://www.quantum-espresso.org/quote

     Parallel version (MPI), running on     1 processors
     Waiting for input...
     Reading input from standard input

     Current dimensions of program PWSCF are:
     Max number of different atomic species (ntypx) = 10
     Max number of k-points (npk) =  40000
     Max angular momentum in pseudopotentials (lmaxx) =  3
     Message from routine iosys:
     minimal I/O required, wf_collect reset to FALSE

     gamma-point specific algorithms are used

     Subspace diagonalization in iterative solution of the eigenvalue problem:
     a serial algorithm will be used


     G-vector sticks info
     --------------------
     sticks:   dense  smooth     PW     G-vecs:    dense   smooth      PW
     Sum        1941    1941    489                65117    65117    8217



     bravais-lattice index     =            0
     lattice parameter (alat)  =      16.0000  a.u.
     unit-cell volume          =    4096.0000 (a.u.)^3
     number of atoms/cell      =            4
     number of atomic types    =            2
     number of electrons       =         8.00
     number of Kohn-Sham states=            4
     kinetic-energy cutoff     =      24.0000  Ry
     charge density cutoff     =      96.0000  Ry
     convergence threshold     =      1.0E-06
     mixing beta               =       0.7000
     number of iterations used =            8  plain     mixing
     Exchange-correlation      = PBE ( 1  4  3  4 0 0)

     celldm(1)=  16.000000  celldm(2)=   0.000000  celldm(3)=   0.000000
     celldm(4)=   0.000000  celldm(5)=   0.000000  celldm(6)=   0.000000

     crystal axes: (cart. coord. in units of alat)
               a(1) = (   1.000000   0.000000   0.000000 )  
               a(2) = (   0.000000   1.000000   0.000000 )  
               a(3) = (   0.000000   0.000000   1.000000 )  

     reciprocal axes: (cart. coord. in units 2 pi/alat)
               b(1) = (  1.000000  0.000000  0.000000 )  
               b(2) = (  0.000000  1.000000  0.000000 )  
               b(3) = (  0.000000  0.000000  1.000000 )  


     PseudoPot. # 1 for  H read from file:
     ../GTH_PBE_2015/H.q1.gth
     MD5 check sum: d076fc93ed96f5cc3314eceb273f8fe5
     Pseudo is Norm-conserving, Zval =  1.0
     GTH norm-conserving PP, generated by Matthias Krack
     Using radial grid of  929 points,  0 beta functions with: 

     PseudoPot. # 2 for  N read from file:
     ../GTH_PBE_2015/N.q5.gth
     MD5 check sum: 1476ec718fff327fe2c88f248f2514f7
     Pseudo is Norm-conserving + core correction, Zval =  5.0
     New Soft-Accurate NLCC pseudopotentials, generated by Santanu Saha
     Using radial grid of 1085 points,  2 beta functions with: 
                l(1) =   0
                l(2) =   0

     atomic species   valence    mass     pseudopotential
        H              1.00     1.01000      H( 1.00)
        N              5.00    14.01000      N( 1.00)

     No symmetry found



   Cartesian axes

     site n.     atom                  positions (alat units)
         1           N   tau(   1) = (   0.4503085   0.4518267   0.4524722  )
         2           H   tau(   2) = (   0.5667983   0.4305661   0.4292002  )
         3           H   tau(   3) = (   0.4332017   0.5694339   0.4316014  )
         4           H   tau(   4) = (   0.4365324   0.4366156   0.5707998  )

     number of k points=     1
                       cart. coord. in units 2pi/alat
        k(    1) = (   0.0000000   0.0000000   0.0000000), wk =   2.0000000

     Dense  grid:    32559 G-vectors     FFT dimensions: (  50,  50,  50)

     Estimated max dynamical RAM per process >      23.49MB

     Check: negative/imaginary core charge=   -0.000008    0.000000

     Initial potential from superposition of free atoms

     negative rho (up, down):  1.955E-06 0.000E+00
     Starting wfc are random

     total cpu time spent up to now is        0.2 secs

     per-process dynamical memory:    24.4 Mb

     Self-consistent Calculation

     iteration #  1     ecut=    24.00 Ry     beta=0.70
     Davidson diagonalization with overlap
     ethr =  1.00E-02,  avg # of iterations =  9.0

     total cpu time spent up to now is        0.5 secs

     total energy              =     -18.52665841 Ry
     Harris-Foulkes estimate   =     -27.04834679 Ry
     estimated scf accuracy    <      10.59220904 Ry

     iteration #  2     ecut=    24.00 Ry     beta=0.70
     Davidson diagonalization with overlap
     ethr =  1.00E-02,  avg # of iterations =  6.0

     total cpu time spent up to now is        0.7 secs

     total energy              =     -23.45202679 Ry
     Harris-Foulkes estimate   =     -26.89025249 Ry
     estimated scf accuracy    <       6.49998011 Ry

     iteration #  3     ecut=    24.00 Ry     beta=0.70
     Davidson diagonalization with overlap
     ethr =  1.00E-02,  avg # of iterations =  2.0

     total cpu time spent up to now is        0.9 secs

     total energy              =     -23.99899248 Ry
     Harris-Foulkes estimate   =     -24.18820400 Ry
     estimated scf accuracy    <       0.53591123 Ry

     iteration #  4     ecut=    24.00 Ry     beta=0.70
     Davidson diagonalization with overlap
     ethr =  6.70E-03,  avg # of iterations =  1.0

     total cpu time spent up to now is        1.1 secs

     total energy              =     -23.86959371 Ry
     Harris-Foulkes estimate   =     -24.01071120 Ry
     estimated scf accuracy    <       0.21114104 Ry

     iteration #  5     ecut=    24.00 Ry     beta=0.70
     Davidson diagonalization with overlap
     ethr =  2.64E-03,  avg # of iterations =  2.0

     total cpu time spent up to now is        1.3 secs

     total energy              =     -23.90264490 Ry
     Harris-Foulkes estimate   =     -23.90870218 Ry
     estimated scf accuracy    <       0.01032597 Ry

     iteration #  6     ecut=    24.00 Ry     beta=0.70
     Davidson diagonalization with overlap
     ethr =  1.29E-04,  avg # of iterations =  2.0

     total cpu time spent up to now is        1.5 secs

     total energy              =     -23.90540543 Ry
     Harris-Foulkes estimate   =     -23.90683268 Ry
     estimated scf accuracy    <       0.00234159 Ry

     iteration #  7     ecut=    24.00 Ry     beta=0.70
     Davidson diagonalization with overlap
     ethr =  2.93E-05,  avg # of iterations =  2.0

     negative rho (up, down):  5.097E-04 0.000E+00

     total cpu time spent up to now is        1.7 secs

     total energy              =     -23.90600971 Ry
     Harris-Foulkes estimate   =     -23.90602364 Ry
     estimated scf accuracy    <       0.00007923 Ry

     iteration #  8     ecut=    24.00 Ry     beta=0.70
     Davidson diagonalization with overlap
     ethr =  9.90E-07,  avg # of iterations =  2.0

     negative rho (up, down):  1.660E-05 0.000E+00

     total cpu time spent up to now is        1.9 secs

     total energy              =     -23.90600292 Ry
     Harris-Foulkes estimate   =     -23.90601713 Ry
     estimated scf accuracy    <       0.00003179 Ry

     iteration #  9     ecut=    24.00 Ry     beta=0.70
     Davidson diagonalization with overlap
     ethr =  3.97E-07,  avg # of iterations =  2.0

     negative rho (up, down):  1.273E-06 0.000E+00

     total cpu time spent up to now is        2.1 secs

     total energy              =     -23.90600654 Ry
     Harris-Foulkes estimate   =     -23.90600711 Ry
     estimated scf accuracy    <       0.00000148 Ry

     iteration # 10     ecut=    24.00 Ry     beta=0.70
     Davidson diagonalization with overlap
     ethr =  1.85E-08,  avg # of iterations =  2.0

     total cpu time spent up to now is        2.3 secs

     End of self-consistent calculation

          k = 0.0000 0.0000 0.0000 (  4109 PWs)   bands (ev):

   -22.4094 -10.8283 -10.7994  -5.9543

     highest occupied level (ev):    -5.9543

!    total energy              =     -23.90600672 Ry
     Harris-Foulkes estimate   =     -23.90600682 Ry
     estimated scf accuracy    <       0.00000017 Ry

     The total energy is the sum of the following terms:

     one-electron contribution =     -45.56025508 Ry
     hartree contribution      =      23.82245472 Ry
     xc contribution           =      -8.41622064 Ry
     ewald contribution        =       6.24801428 Ry

     convergence has been achieved in  10 iterations

     Forces acting on atoms (cartesian axes, Ry/au):

     atom    1 type  2   force =    -0.10853733   -0.10277555   -0.10516810
     atom    2 type  1   force =     0.12433627   -0.01386140   -0.01613176
     atom    3 type  1   force =    -0.00921788    0.12542384   -0.01389299
     atom    4 type  1   force =    -0.00658107   -0.00878690    0.13519285

     Total force =     0.289348     Total SCF correction =     0.000768

     init_run     :      0.22s CPU      0.24s WALL (       1 calls)
     electrons    :      2.00s CPU      2.01s WALL (       1 calls)
     forces       :      0.23s CPU      0.24s WALL (       1 calls)

     Called by init_run:
     wfcinit      :      0.02s CPU      0.01s WALL (       1 calls)
     potinit      :      0.16s CPU      0.17s WALL (       1 calls)

     Called by electrons:
     c_bands      :      0.42s CPU      0.42s WALL (      10 calls)
     sum_band     :      0.14s CPU      0.14s WALL (      10 calls)
     v_of_rho     :      1.37s CPU      1.40s WALL (      11 calls)
     mix_rho      :      0.15s CPU      0.15s WALL (      10 calls)

     Called by c_bands:
     init_us_2    :      0.01s CPU      0.01s WALL (      21 calls)
     regterg      :      0.42s CPU      0.41s WALL (      10 calls)

     Called by sum_band:

     Called by *egterg:
     h_psi        :      0.37s CPU      0.38s WALL (      41 calls)
     g_psi        :      0.01s CPU      0.01s WALL (      30 calls)
     rdiaghg      :      0.01s CPU      0.00s WALL (      40 calls)

     Called by h_psi:
     h_psi:pot    :      0.36s CPU      0.38s WALL (      41 calls)
     h_psi:calbec :      0.00s CPU      0.00s WALL (      41 calls)
     vloc_psi     :      0.36s CPU      0.37s WALL (      41 calls)
     add_vuspsi   :      0.00s CPU      0.00s WALL (      41 calls)

     General routines
     calbec       :      0.00s CPU      0.00s WALL (      45 calls)
     fft          :      0.38s CPU      0.39s WALL (     131 calls)
     fftw         :      0.35s CPU      0.35s WALL (     174 calls)

     Parallel routines
     fft_scatter  :      0.14s CPU      0.14s WALL (     305 calls)

     PWSCF        :     2.45s CPU         2.49s WALL


   This run was terminated on:   0: 7:51  11Jun2017            

=------------------------------------------------------------------------------=
   JOB DONE.
=------------------------------------------------------------------------------=
