
     Program PWSCF v.6.1 (svn rev. 13369) starts on 11Jun2017 at  0: 8: 1 

     This program is part of the open-source Quantum ESPRESSO suite
     for quantum simulation of materials; please cite
         "P. Giannozzi et al., J. Phys.:Condens. Matter 21 395502 (2009);
          URL http://www.quantum-espresso.org", 
     in publications or presentations arising from this work. More details at
     http://www.quantum-espresso.org/quote

     Parallel version (MPI), running on     1 processors
     Waiting for input...
     Reading input from standard input

     Current dimensions of program PWSCF are:
     Max number of different atomic species (ntypx) = 10
     Max number of k-points (npk) =  40000
     Max angular momentum in pseudopotentials (lmaxx) =  3
     Message from routine iosys:
     minimal I/O required, wf_collect reset to FALSE

     gamma-point specific algorithms are used

     Subspace diagonalization in iterative solution of the eigenvalue problem:
     a serial algorithm will be used


     G-vector sticks info
     --------------------
     sticks:   dense  smooth     PW     G-vecs:    dense   smooth      PW
     Sum        2601    2601    657               100377   100377   12533



     bravais-lattice index     =            0
     lattice parameter (alat)  =      16.0000  a.u.
     unit-cell volume          =    4096.0000 (a.u.)^3
     number of atoms/cell      =            4
     number of atomic types    =            2
     number of electrons       =         8.00
     number of Kohn-Sham states=            4
     kinetic-energy cutoff     =      32.0000  Ry
     charge density cutoff     =     128.0000  Ry
     convergence threshold     =      1.0E-06
     mixing beta               =       0.7000
     number of iterations used =            8  plain     mixing
     Exchange-correlation      = PBE ( 1  4  3  4 0 0)

     celldm(1)=  16.000000  celldm(2)=   0.000000  celldm(3)=   0.000000
     celldm(4)=   0.000000  celldm(5)=   0.000000  celldm(6)=   0.000000

     crystal axes: (cart. coord. in units of alat)
               a(1) = (   1.000000   0.000000   0.000000 )  
               a(2) = (   0.000000   1.000000   0.000000 )  
               a(3) = (   0.000000   0.000000   1.000000 )  

     reciprocal axes: (cart. coord. in units 2 pi/alat)
               b(1) = (  1.000000  0.000000  0.000000 )  
               b(2) = (  0.000000  1.000000  0.000000 )  
               b(3) = (  0.000000  0.000000  1.000000 )  


     PseudoPot. # 1 for  H read from file:
     ../GTH_PBE_2015/H.q1.gth
     MD5 check sum: d076fc93ed96f5cc3314eceb273f8fe5
     Pseudo is Norm-conserving, Zval =  1.0
     GTH norm-conserving PP, generated by Matthias Krack
     Using radial grid of  929 points,  0 beta functions with: 

     PseudoPot. # 2 for  N read from file:
     ../GTH_PBE_2015/N.q5.gth
     MD5 check sum: 1476ec718fff327fe2c88f248f2514f7
     Pseudo is Norm-conserving + core correction, Zval =  5.0
     New Soft-Accurate NLCC pseudopotentials, generated by Santanu Saha
     Using radial grid of 1085 points,  2 beta functions with: 
                l(1) =   0
                l(2) =   0

     atomic species   valence    mass     pseudopotential
        H              1.00     1.01000      H( 1.00)
        N              5.00    14.01000      N( 1.00)

     No symmetry found



   Cartesian axes

     site n.     atom                  positions (alat units)
         1           N   tau(   1) = (   0.4503085   0.4518267   0.4524722  )
         2           H   tau(   2) = (   0.5667983   0.4305661   0.4292002  )
         3           H   tau(   3) = (   0.4332017   0.5694339   0.4316014  )
         4           H   tau(   4) = (   0.4365324   0.4366156   0.5707998  )

     number of k points=     1
                       cart. coord. in units 2pi/alat
        k(    1) = (   0.0000000   0.0000000   0.0000000), wk =   2.0000000

     Dense  grid:    50189 G-vectors     FFT dimensions: (  60,  60,  60)

     Estimated max dynamical RAM per process >      37.81MB

     Check: negative/imaginary core charge=   -0.000001    0.000000

     Initial potential from superposition of free atoms

     negative rho (up, down):  2.244E-08 0.000E+00
     Starting wfc are random

     total cpu time spent up to now is        0.4 secs

     per-process dynamical memory:    36.3 Mb

     Self-consistent Calculation

     iteration #  1     ecut=    32.00 Ry     beta=0.70
     Davidson diagonalization with overlap
     ethr =  1.00E-02,  avg # of iterations =  8.0

     total cpu time spent up to now is        0.8 secs

     total energy              =     -18.88784685 Ry
     Harris-Foulkes estimate   =     -27.02481625 Ry
     estimated scf accuracy    <      10.23441210 Ry

     iteration #  2     ecut=    32.00 Ry     beta=0.70
     Davidson diagonalization with overlap
     ethr =  1.00E-02,  avg # of iterations =  6.0

     total cpu time spent up to now is        1.2 secs

     total energy              =     -23.68575741 Ry
     Harris-Foulkes estimate   =     -27.42311294 Ry
     estimated scf accuracy    <       7.14564210 Ry

     iteration #  3     ecut=    32.00 Ry     beta=0.70
     Davidson diagonalization with overlap
     ethr =  1.00E-02,  avg # of iterations =  3.0

     total cpu time spent up to now is        1.5 secs

     total energy              =     -24.36053142 Ry
     Harris-Foulkes estimate   =     -24.52765609 Ry
     estimated scf accuracy    <       0.56000171 Ry

     iteration #  4     ecut=    32.00 Ry     beta=0.70
     Davidson diagonalization with overlap
     ethr =  7.00E-03,  avg # of iterations =  1.0

     total cpu time spent up to now is        1.8 secs

     total energy              =     -24.19813396 Ry
     Harris-Foulkes estimate   =     -24.36802570 Ry
     estimated scf accuracy    <       0.26265991 Ry

     iteration #  5     ecut=    32.00 Ry     beta=0.70
     Davidson diagonalization with overlap
     ethr =  3.28E-03,  avg # of iterations =  2.0

     total cpu time spent up to now is        2.1 secs

     total energy              =     -24.23741692 Ry
     Harris-Foulkes estimate   =     -24.24611754 Ry
     estimated scf accuracy    <       0.01404423 Ry

     iteration #  6     ecut=    32.00 Ry     beta=0.70
     Davidson diagonalization with overlap
     ethr =  1.76E-04,  avg # of iterations =  2.0

     total cpu time spent up to now is        2.4 secs

     total energy              =     -24.24174477 Ry
     Harris-Foulkes estimate   =     -24.24371284 Ry
     estimated scf accuracy    <       0.00428053 Ry

     iteration #  7     ecut=    32.00 Ry     beta=0.70
     Davidson diagonalization with overlap
     ethr =  5.35E-05,  avg # of iterations =  2.0

     negative rho (up, down):  1.251E-04 0.000E+00

     total cpu time spent up to now is        2.8 secs

     total energy              =     -24.24248190 Ry
     Harris-Foulkes estimate   =     -24.24246009 Ry
     estimated scf accuracy    <       0.00002544 Ry

     iteration #  8     ecut=    32.00 Ry     beta=0.70
     Davidson diagonalization with overlap
     ethr =  3.18E-07,  avg # of iterations =  3.0

     negative rho (up, down):  1.407E-04 0.000E+00

     total cpu time spent up to now is        3.1 secs

     total energy              =     -24.24248614 Ry
     Harris-Foulkes estimate   =     -24.24250290 Ry
     estimated scf accuracy    <       0.00003094 Ry

     iteration #  9     ecut=    32.00 Ry     beta=0.70
     Davidson diagonalization with overlap
     ethr =  3.18E-07,  avg # of iterations =  2.0

     total cpu time spent up to now is        3.4 secs

     total energy              =     -24.24249391 Ry
     Harris-Foulkes estimate   =     -24.24249419 Ry
     estimated scf accuracy    <       0.00000118 Ry

     iteration # 10     ecut=    32.00 Ry     beta=0.70
     Davidson diagonalization with overlap
     ethr =  1.47E-08,  avg # of iterations =  2.0

     total cpu time spent up to now is        3.7 secs

     End of self-consistent calculation

          k = 0.0000 0.0000 0.0000 (  6267 PWs)   bands (ev):

   -21.6670 -10.9304 -10.8995  -5.9353

     highest occupied level (ev):    -5.9353

!    total energy              =     -24.24249407 Ry
     Harris-Foulkes estimate   =     -24.24249446 Ry
     estimated scf accuracy    <       0.00000042 Ry

     The total energy is the sum of the following terms:

     one-electron contribution =     -46.21447203 Ry
     hartree contribution      =      24.24773863 Ry
     xc contribution           =      -8.52377489 Ry
     ewald contribution        =       6.24801422 Ry

     convergence has been achieved in  10 iterations

     Forces acting on atoms (cartesian axes, Ry/au):

     atom    1 type  2   force =    -0.05263165   -0.05001148   -0.05771615
     atom    2 type  1   force =     0.05921883   -0.00576169   -0.00664779
     atom    3 type  1   force =    -0.00363312    0.05991598   -0.00572856
     atom    4 type  1   force =    -0.00295405   -0.00414280    0.07009250

     Total force =     0.144088     Total SCF correction =     0.000657

     init_run     :      0.35s CPU      0.36s WALL (       1 calls)
     electrons    :      3.31s CPU      3.32s WALL (       1 calls)
     forces       :      0.34s CPU      0.35s WALL (       1 calls)

     Called by init_run:
     wfcinit      :      0.02s CPU      0.02s WALL (       1 calls)
     potinit      :      0.24s CPU      0.25s WALL (       1 calls)

     Called by electrons:
     c_bands      :      0.73s CPU      0.74s WALL (      10 calls)
     sum_band     :      0.25s CPU      0.25s WALL (      10 calls)
     v_of_rho     :      2.24s CPU      2.23s WALL (      11 calls)
     mix_rho      :      0.24s CPU      0.25s WALL (      10 calls)

     Called by c_bands:
     init_us_2    :      0.02s CPU      0.02s WALL (      21 calls)
     regterg      :      0.72s CPU      0.73s WALL (      10 calls)

     Called by sum_band:

     Called by *egterg:
     h_psi        :      0.69s CPU      0.69s WALL (      42 calls)
     g_psi        :      0.01s CPU      0.01s WALL (      31 calls)
     rdiaghg      :      0.00s CPU      0.00s WALL (      41 calls)

     Called by h_psi:
     h_psi:pot    :      0.69s CPU      0.69s WALL (      42 calls)
     h_psi:calbec :      0.00s CPU      0.01s WALL (      42 calls)
     vloc_psi     :      0.68s CPU      0.68s WALL (      42 calls)
     add_vuspsi   :      0.00s CPU      0.00s WALL (      42 calls)

     General routines
     calbec       :      0.00s CPU      0.01s WALL (      46 calls)
     fft          :      0.65s CPU      0.64s WALL (     131 calls)
     fftw         :      0.62s CPU      0.60s WALL (     180 calls)

     Parallel routines
     fft_scatter  :      0.29s CPU      0.29s WALL (     311 calls)

     PWSCF        :     4.01s CPU         4.04s WALL


   This run was terminated on:   0: 8: 5  11Jun2017            

=------------------------------------------------------------------------------=
   JOB DONE.
=------------------------------------------------------------------------------=
