
     Program PWSCF v.6.1 (svn rev. 13369) starts on 11Jun2017 at  0: 7:54 

     This program is part of the open-source Quantum ESPRESSO suite
     for quantum simulation of materials; please cite
         "P. Giannozzi et al., J. Phys.:Condens. Matter 21 395502 (2009);
          URL http://www.quantum-espresso.org", 
     in publications or presentations arising from this work. More details at
     http://www.quantum-espresso.org/quote

     Parallel version (MPI), running on     1 processors
     Waiting for input...
     Reading input from standard input

     Current dimensions of program PWSCF are:
     Max number of different atomic species (ntypx) = 10
     Max number of k-points (npk) =  40000
     Max angular momentum in pseudopotentials (lmaxx) =  3
     Message from routine iosys:
     minimal I/O required, wf_collect reset to FALSE

     gamma-point specific algorithms are used

     Subspace diagonalization in iterative solution of the eigenvalue problem:
     a serial algorithm will be used


     G-vector sticks info
     --------------------
     sticks:   dense  smooth     PW     G-vecs:    dense   smooth      PW
     Sum        2285    2285    577                82057    82057   10251



     bravais-lattice index     =            0
     lattice parameter (alat)  =      16.0000  a.u.
     unit-cell volume          =    4096.0000 (a.u.)^3
     number of atoms/cell      =            4
     number of atomic types    =            2
     number of electrons       =         8.00
     number of Kohn-Sham states=            4
     kinetic-energy cutoff     =      28.0000  Ry
     charge density cutoff     =     112.0000  Ry
     convergence threshold     =      1.0E-06
     mixing beta               =       0.7000
     number of iterations used =            8  plain     mixing
     Exchange-correlation      = PBE ( 1  4  3  4 0 0)

     celldm(1)=  16.000000  celldm(2)=   0.000000  celldm(3)=   0.000000
     celldm(4)=   0.000000  celldm(5)=   0.000000  celldm(6)=   0.000000

     crystal axes: (cart. coord. in units of alat)
               a(1) = (   1.000000   0.000000   0.000000 )  
               a(2) = (   0.000000   1.000000   0.000000 )  
               a(3) = (   0.000000   0.000000   1.000000 )  

     reciprocal axes: (cart. coord. in units 2 pi/alat)
               b(1) = (  1.000000  0.000000  0.000000 )  
               b(2) = (  0.000000  1.000000  0.000000 )  
               b(3) = (  0.000000  0.000000  1.000000 )  


     PseudoPot. # 1 for  H read from file:
     ../GTH_PBE_2015/H.q1.gth
     MD5 check sum: d076fc93ed96f5cc3314eceb273f8fe5
     Pseudo is Norm-conserving, Zval =  1.0
     GTH norm-conserving PP, generated by Matthias Krack
     Using radial grid of  929 points,  0 beta functions with: 

     PseudoPot. # 2 for  N read from file:
     ../GTH_PBE_2015/N.q5.gth
     MD5 check sum: 1476ec718fff327fe2c88f248f2514f7
     Pseudo is Norm-conserving + core correction, Zval =  5.0
     New Soft-Accurate NLCC pseudopotentials, generated by Santanu Saha
     Using radial grid of 1085 points,  2 beta functions with: 
                l(1) =   0
                l(2) =   0

     atomic species   valence    mass     pseudopotential
        H              1.00     1.01000      H( 1.00)
        N              5.00    14.01000      N( 1.00)

     No symmetry found



   Cartesian axes

     site n.     atom                  positions (alat units)
         1           N   tau(   1) = (   0.4503085   0.4518267   0.4524722  )
         2           H   tau(   2) = (   0.5667983   0.4305661   0.4292002  )
         3           H   tau(   3) = (   0.4332017   0.5694339   0.4316014  )
         4           H   tau(   4) = (   0.4365324   0.4366156   0.5707998  )

     number of k points=     1
                       cart. coord. in units 2pi/alat
        k(    1) = (   0.0000000   0.0000000   0.0000000), wk =   2.0000000

     Dense  grid:    41029 G-vectors     FFT dimensions: (  54,  54,  54)

     Estimated max dynamical RAM per process >      29.60MB

     Check: negative/imaginary core charge=   -0.000003    0.000000

     Initial potential from superposition of free atoms

     negative rho (up, down):  1.120E-07 0.000E+00
     Starting wfc are random

     total cpu time spent up to now is        0.3 secs

     per-process dynamical memory:    28.9 Mb

     Self-consistent Calculation

     iteration #  1     ecut=    28.00 Ry     beta=0.70
     Davidson diagonalization with overlap
     ethr =  1.00E-02,  avg # of iterations =  8.0

     total cpu time spent up to now is        0.6 secs

     total energy              =     -14.30744958 Ry
     Harris-Foulkes estimate   =     -26.37938318 Ry
     estimated scf accuracy    <      15.01950822 Ry

     iteration #  2     ecut=    28.00 Ry     beta=0.70
     Davidson diagonalization with overlap
     ethr =  1.00E-02,  avg # of iterations =  6.0

     total cpu time spent up to now is        0.9 secs

     total energy              =     -24.00235720 Ry
     Harris-Foulkes estimate   =     -29.31891311 Ry
     estimated scf accuracy    <       9.78516997 Ry

     iteration #  3     ecut=    28.00 Ry     beta=0.70
     Davidson diagonalization with overlap
     ethr =  1.00E-02,  avg # of iterations =  3.0

     total cpu time spent up to now is        1.2 secs

     total energy              =     -24.54786633 Ry
     Harris-Foulkes estimate   =     -24.89010151 Ry
     estimated scf accuracy    <       1.30596325 Ry

     iteration #  4     ecut=    28.00 Ry     beta=0.70
     Davidson diagonalization with overlap
     ethr =  1.00E-02,  avg # of iterations =  1.0

     total cpu time spent up to now is        1.4 secs

     total energy              =     -23.98288145 Ry
     Harris-Foulkes estimate   =     -24.55550559 Ry
     estimated scf accuracy    <       0.78622819 Ry

     iteration #  5     ecut=    28.00 Ry     beta=0.70
     Davidson diagonalization with overlap
     ethr =  9.83E-03,  avg # of iterations =  2.0

     total cpu time spent up to now is        1.6 secs

     total energy              =     -24.09051936 Ry
     Harris-Foulkes estimate   =     -24.10208776 Ry
     estimated scf accuracy    <       0.02394973 Ry

     iteration #  6     ecut=    28.00 Ry     beta=0.70
     Davidson diagonalization with overlap
     ethr =  2.99E-04,  avg # of iterations =  2.0

     total cpu time spent up to now is        1.9 secs

     total energy              =     -24.09177997 Ry
     Harris-Foulkes estimate   =     -24.10815011 Ry
     estimated scf accuracy    <       0.02880962 Ry

     iteration #  7     ecut=    28.00 Ry     beta=0.70
     Davidson diagonalization with overlap
     ethr =  2.99E-04,  avg # of iterations =  2.0

     negative rho (up, down):  2.219E-03 0.000E+00

     total cpu time spent up to now is        2.1 secs

     total energy              =     -24.09702558 Ry
     Harris-Foulkes estimate   =     -24.09696107 Ry
     estimated scf accuracy    <       0.00003842 Ry

     iteration #  8     ecut=    28.00 Ry     beta=0.70
     Davidson diagonalization with overlap
     ethr =  4.80E-07,  avg # of iterations =  3.0

     total cpu time spent up to now is        2.4 secs

     total energy              =     -24.09703330 Ry
     Harris-Foulkes estimate   =     -24.09708406 Ry
     estimated scf accuracy    <       0.00008743 Ry

     iteration #  9     ecut=    28.00 Ry     beta=0.70
     Davidson diagonalization with overlap
     ethr =  4.80E-07,  avg # of iterations =  2.0

     negative rho (up, down):  7.473E-05 0.000E+00

     total cpu time spent up to now is        2.7 secs

     total energy              =     -24.09705231 Ry
     Harris-Foulkes estimate   =     -24.09705758 Ry
     estimated scf accuracy    <       0.00000688 Ry

     iteration # 10     ecut=    28.00 Ry     beta=0.70
     Davidson diagonalization with overlap
     ethr =  8.60E-08,  avg # of iterations =  2.0

     total cpu time spent up to now is        2.9 secs

     total energy              =     -24.09705408 Ry
     Harris-Foulkes estimate   =     -24.09705553 Ry
     estimated scf accuracy    <       0.00000303 Ry

     iteration # 11     ecut=    28.00 Ry     beta=0.70
     Davidson diagonalization with overlap
     ethr =  3.79E-08,  avg # of iterations =  2.0

     total cpu time spent up to now is        3.2 secs

     End of self-consistent calculation

          k = 0.0000 0.0000 0.0000 (  5126 PWs)   bands (ev):

   -21.9865 -10.8942 -10.8645  -5.9460

     highest occupied level (ev):    -5.9460

!    total energy              =     -24.09705469 Ry
     Harris-Foulkes estimate   =     -24.09705471 Ry
     estimated scf accuracy    <       0.00000004 Ry

     The total energy is the sum of the following terms:

     one-electron contribution =     -45.93447422 Ry
     hartree contribution      =      24.06696394 Ry
     xc contribution           =      -8.47755866 Ry
     ewald contribution        =       6.24801424 Ry

     convergence has been achieved in  11 iterations

     Forces acting on atoms (cartesian axes, Ry/au):

     atom    1 type  2   force =    -0.08050061   -0.07621936   -0.08149746
     atom    2 type  1   force =     0.09361123   -0.01078546   -0.01240574
     atom    3 type  1   force =    -0.00738481    0.09446812   -0.01086170
     atom    4 type  1   force =    -0.00572582   -0.00746330    0.10476490

     Total force =     0.219376     Total SCF correction =     0.000188

     init_run     :      0.28s CPU      0.29s WALL (       1 calls)
     electrons    :      2.84s CPU      2.85s WALL (       1 calls)
     forces       :      0.28s CPU      0.29s WALL (       1 calls)

     Called by init_run:
     wfcinit      :      0.02s CPU      0.02s WALL (       1 calls)
     potinit      :      0.20s CPU      0.20s WALL (       1 calls)

     Called by electrons:
     c_bands      :      0.60s CPU      0.62s WALL (      11 calls)
     sum_band     :      0.22s CPU      0.21s WALL (      11 calls)
     v_of_rho     :      1.90s CPU      1.91s WALL (      12 calls)
     mix_rho      :      0.24s CPU      0.23s WALL (      11 calls)

     Called by c_bands:
     init_us_2    :      0.02s CPU      0.02s WALL (      23 calls)
     regterg      :      0.60s CPU      0.61s WALL (      11 calls)

     Called by sum_band:

     Called by *egterg:
     h_psi        :      0.55s CPU      0.57s WALL (      45 calls)
     g_psi        :      0.02s CPU      0.01s WALL (      33 calls)
     rdiaghg      :      0.00s CPU      0.01s WALL (      44 calls)

     Called by h_psi:
     h_psi:pot    :      0.55s CPU      0.56s WALL (      45 calls)
     h_psi:calbec :      0.00s CPU      0.01s WALL (      45 calls)
     vloc_psi     :      0.54s CPU      0.56s WALL (      45 calls)
     add_vuspsi   :      0.00s CPU      0.00s WALL (      45 calls)

     General routines
     calbec       :      0.00s CPU      0.01s WALL (      49 calls)
     fft          :      0.56s CPU      0.56s WALL (     142 calls)
     fftw         :      0.48s CPU      0.51s WALL (     192 calls)

     Parallel routines
     fft_scatter  :      0.18s CPU      0.22s WALL (     334 calls)

     PWSCF        :     3.40s CPU         3.44s WALL


   This run was terminated on:   0: 7:57  11Jun2017            

=------------------------------------------------------------------------------=
   JOB DONE.
=------------------------------------------------------------------------------=
