
     Program PWSCF v.6.1 (svn rev. 13369) starts on 11Jun2017 at  0: 7:57 

     This program is part of the open-source Quantum ESPRESSO suite
     for quantum simulation of materials; please cite
         "P. Giannozzi et al., J. Phys.:Condens. Matter 21 395502 (2009);
          URL http://www.quantum-espresso.org", 
     in publications or presentations arising from this work. More details at
     http://www.quantum-espresso.org/quote

     Parallel version (MPI), running on     1 processors
     Waiting for input...
     Reading input from standard input

     Current dimensions of program PWSCF are:
     Max number of different atomic species (ntypx) = 10
     Max number of k-points (npk) =  40000
     Max angular momentum in pseudopotentials (lmaxx) =  3
     Message from routine iosys:
     minimal I/O required, wf_collect reset to FALSE

     gamma-point specific algorithms are used

     Subspace diagonalization in iterative solution of the eigenvalue problem:
     a serial algorithm will be used


     G-vector sticks info
     --------------------
     sticks:   dense  smooth     PW     G-vecs:    dense   smooth      PW
     Sum        2449    2449    609                91047    91047   11363



     bravais-lattice index     =            0
     lattice parameter (alat)  =      16.0000  a.u.
     unit-cell volume          =    4096.0000 (a.u.)^3
     number of atoms/cell      =            4
     number of atomic types    =            2
     number of electrons       =         8.00
     number of Kohn-Sham states=            4
     kinetic-energy cutoff     =      30.0000  Ry
     charge density cutoff     =     120.0000  Ry
     convergence threshold     =      1.0E-06
     mixing beta               =       0.7000
     number of iterations used =            8  plain     mixing
     Exchange-correlation      = PBE ( 1  4  3  4 0 0)

     celldm(1)=  16.000000  celldm(2)=   0.000000  celldm(3)=   0.000000
     celldm(4)=   0.000000  celldm(5)=   0.000000  celldm(6)=   0.000000

     crystal axes: (cart. coord. in units of alat)
               a(1) = (   1.000000   0.000000   0.000000 )  
               a(2) = (   0.000000   1.000000   0.000000 )  
               a(3) = (   0.000000   0.000000   1.000000 )  

     reciprocal axes: (cart. coord. in units 2 pi/alat)
               b(1) = (  1.000000  0.000000  0.000000 )  
               b(2) = (  0.000000  1.000000  0.000000 )  
               b(3) = (  0.000000  0.000000  1.000000 )  


     PseudoPot. # 1 for  H read from file:
     ../GTH_PBE_2015/H.q1.gth
     MD5 check sum: d076fc93ed96f5cc3314eceb273f8fe5
     Pseudo is Norm-conserving, Zval =  1.0
     GTH norm-conserving PP, generated by Matthias Krack
     Using radial grid of  929 points,  0 beta functions with: 

     PseudoPot. # 2 for  N read from file:
     ../GTH_PBE_2015/N.q5.gth
     MD5 check sum: 1476ec718fff327fe2c88f248f2514f7
     Pseudo is Norm-conserving + core correction, Zval =  5.0
     New Soft-Accurate NLCC pseudopotentials, generated by Santanu Saha
     Using radial grid of 1085 points,  2 beta functions with: 
                l(1) =   0
                l(2) =   0

     atomic species   valence    mass     pseudopotential
        H              1.00     1.01000      H( 1.00)
        N              5.00    14.01000      N( 1.00)

     No symmetry found



   Cartesian axes

     site n.     atom                  positions (alat units)
         1           N   tau(   1) = (   0.4503085   0.4518267   0.4524722  )
         2           H   tau(   2) = (   0.5667983   0.4305661   0.4292002  )
         3           H   tau(   3) = (   0.4332017   0.5694339   0.4316014  )
         4           H   tau(   4) = (   0.4365324   0.4366156   0.5707998  )

     number of k points=     1
                       cart. coord. in units 2pi/alat
        k(    1) = (   0.0000000   0.0000000   0.0000000), wk =   2.0000000

     Dense  grid:    45524 G-vectors     FFT dimensions: (  60,  60,  60)

     Estimated max dynamical RAM per process >      35.67MB

     Check: negative/imaginary core charge=   -0.000002    0.000000

     Initial potential from superposition of free atoms

     negative rho (up, down):  2.993E-08 0.000E+00
     Starting wfc are random

     total cpu time spent up to now is        0.4 secs

     per-process dynamical memory:    35.5 Mb

     Self-consistent Calculation

     iteration #  1     ecut=    30.00 Ry     beta=0.70
     Davidson diagonalization with overlap
     ethr =  1.00E-02,  avg # of iterations =  9.0

     total cpu time spent up to now is        0.8 secs

     total energy              =     -18.84506366 Ry
     Harris-Foulkes estimate   =     -27.03311446 Ry
     estimated scf accuracy    <      10.27502307 Ry

     iteration #  2     ecut=    30.00 Ry     beta=0.70
     Davidson diagonalization with overlap
     ethr =  1.00E-02,  avg # of iterations =  6.0

     total cpu time spent up to now is        1.2 secs

     total energy              =     -23.63339871 Ry
     Harris-Foulkes estimate   =     -27.28862426 Ry
     estimated scf accuracy    <       6.97304723 Ry

     iteration #  3     ecut=    30.00 Ry     beta=0.70
     Davidson diagonalization with overlap
     ethr =  1.00E-02,  avg # of iterations =  3.0

     total cpu time spent up to now is        1.5 secs

     total energy              =     -24.28588986 Ry
     Harris-Foulkes estimate   =     -24.45425247 Ry
     estimated scf accuracy    <       0.54444368 Ry

     iteration #  4     ecut=    30.00 Ry     beta=0.70
     Davidson diagonalization with overlap
     ethr =  6.81E-03,  avg # of iterations =  1.0

     total cpu time spent up to now is        1.8 secs

     total energy              =     -24.13442943 Ry
     Harris-Foulkes estimate   =     -24.29376335 Ry
     estimated scf accuracy    <       0.24570021 Ry

     iteration #  5     ecut=    30.00 Ry     beta=0.70
     Davidson diagonalization with overlap
     ethr =  3.07E-03,  avg # of iterations =  2.0

     total cpu time spent up to now is        2.1 secs

     total energy              =     -24.17121208 Ry
     Harris-Foulkes estimate   =     -24.17984605 Ry
     estimated scf accuracy    <       0.01385005 Ry

     iteration #  6     ecut=    30.00 Ry     beta=0.70
     Davidson diagonalization with overlap
     ethr =  1.73E-04,  avg # of iterations =  2.0

     total cpu time spent up to now is        2.5 secs

     total energy              =     -24.17551823 Ry
     Harris-Foulkes estimate   =     -24.17716126 Ry
     estimated scf accuracy    <       0.00370551 Ry

     iteration #  7     ecut=    30.00 Ry     beta=0.70
     Davidson diagonalization with overlap
     ethr =  4.63E-05,  avg # of iterations =  2.0

     negative rho (up, down):  1.019E-04 0.000E+00

     total cpu time spent up to now is        2.8 secs

     total energy              =     -24.17612465 Ry
     Harris-Foulkes estimate   =     -24.17612285 Ry
     estimated scf accuracy    <       0.00002620 Ry

     iteration #  8     ecut=    30.00 Ry     beta=0.70
     Davidson diagonalization with overlap
     ethr =  3.27E-07,  avg # of iterations =  3.0

     negative rho (up, down):  1.129E-04 0.000E+00

     total cpu time spent up to now is        3.1 secs

     total energy              =     -24.17613010 Ry
     Harris-Foulkes estimate   =     -24.17614436 Ry
     estimated scf accuracy    <       0.00002715 Ry

     iteration #  9     ecut=    30.00 Ry     beta=0.70
     Davidson diagonalization with overlap
     ethr =  3.27E-07,  avg # of iterations =  2.0

     total cpu time spent up to now is        3.4 secs

     End of self-consistent calculation

          k = 0.0000 0.0000 0.0000 (  5682 PWs)   bands (ev):

   -21.8149 -10.9150 -10.8841  -5.9434

     highest occupied level (ev):    -5.9434

!    total energy              =     -24.17613642 Ry
     Harris-Foulkes estimate   =     -24.17613656 Ry
     estimated scf accuracy    <       0.00000058 Ry

     The total energy is the sum of the following terms:

     one-electron contribution =     -46.08988548 Ry
     hartree contribution      =      24.16927501 Ry
     xc contribution           =      -8.50354020 Ry
     ewald contribution        =       6.24801425 Ry

     convergence has been achieved in   9 iterations

     Forces acting on atoms (cartesian axes, Ry/au):

     atom    1 type  2   force =    -0.06738656   -0.06376749   -0.07019990
     atom    2 type  1   force =     0.07712590   -0.00828114   -0.00954234
     atom    3 type  1   force =    -0.00546987    0.07776298   -0.00824894
     atom    4 type  1   force =    -0.00426948   -0.00571436    0.08799118

     Total force =     0.183253     Total SCF correction =     0.000581

     init_run     :      0.34s CPU      0.36s WALL (       1 calls)
     electrons    :      2.98s CPU      3.03s WALL (       1 calls)
     forces       :      0.34s CPU      0.35s WALL (       1 calls)

     Called by init_run:
     wfcinit      :      0.02s CPU      0.02s WALL (       1 calls)
     potinit      :      0.24s CPU      0.26s WALL (       1 calls)

     Called by electrons:
     c_bands      :      0.69s CPU      0.68s WALL (       9 calls)
     sum_band     :      0.22s CPU      0.22s WALL (       9 calls)
     v_of_rho     :      2.06s CPU      2.11s WALL (      10 calls)
     mix_rho      :      0.18s CPU      0.19s WALL (       9 calls)

     Called by c_bands:
     init_us_2    :      0.00s CPU      0.01s WALL (      19 calls)
     regterg      :      0.68s CPU      0.67s WALL (       9 calls)

     Called by sum_band:

     Called by *egterg:
     h_psi        :      0.64s CPU      0.64s WALL (      40 calls)
     g_psi        :      0.02s CPU      0.01s WALL (      30 calls)
     rdiaghg      :      0.00s CPU      0.00s WALL (      39 calls)

     Called by h_psi:
     h_psi:pot    :      0.64s CPU      0.63s WALL (      40 calls)
     h_psi:calbec :      0.01s CPU      0.00s WALL (      40 calls)
     vloc_psi     :      0.62s CPU      0.63s WALL (      40 calls)
     add_vuspsi   :      0.00s CPU      0.00s WALL (      40 calls)

     General routines
     calbec       :      0.01s CPU      0.00s WALL (      44 calls)
     fft          :      0.52s CPU      0.59s WALL (     120 calls)
     fftw         :      0.56s CPU      0.56s WALL (     168 calls)

     Parallel routines
     fft_scatter  :      0.33s CPU      0.27s WALL (     288 calls)

     PWSCF        :     3.66s CPU         3.75s WALL


   This run was terminated on:   0: 8: 1  11Jun2017            

=------------------------------------------------------------------------------=
   JOB DONE.
=------------------------------------------------------------------------------=
