
     Program PWSCF v.6.1 (svn rev. 13369) starts on 12Apr2017 at 16: 1:34 

     This program is part of the open-source Quantum ESPRESSO suite
     for quantum simulation of materials; please cite
         "P. Giannozzi et al., J. Phys.:Condens. Matter 21 395502 (2009);
          URL http://www.quantum-espresso.org", 
     in publications or presentations arising from this work. More details at
     http://www.quantum-espresso.org/quote

     Parallel version (MPI), running on     1 processors
     Waiting for input...
     Reading input from standard input

     Current dimensions of program PWSCF are:
     Max number of different atomic species (ntypx) = 10
     Max number of k-points (npk) =  40000
     Max angular momentum in pseudopotentials (lmaxx) =  3

     IMPORTANT: XC functional enforced from input :
     Exchange-correlation      = PBE0 ( 6  4  8  4 0 0)
     EXX-fraction              =        0.25
     Any further DFT definition will be discarded
     Please, verify this is what you really want


     Subspace diagonalization in iterative solution of the eigenvalue problem:
     a serial algorithm will be used

     EXX: setup a grid of 80 q-points centered on each k-point
     (k+q)-points:
   0.1250000   0.1250000   0.1250000         1    1
  -0.3750000   0.6250000  -0.3750000        10   11
  -0.3750000  -0.3750000  -0.3750000         9   -1
   0.1250000  -0.8750000   0.1250000         4  -11
  -0.3750000  -0.3750000   0.6250000        10    2
  -0.8750000   0.1250000   0.1250000         4   -8
   0.1250000   0.1250000  -0.8750000         4   -2
   0.6250000  -0.3750000  -0.3750000        10    8
   0.1250000   0.1250000   0.3750000         2    1
  -0.3750000   0.6250000  -0.1250000         6   11
  -0.3750000  -0.3750000  -0.1250000         5   -9
   0.1250000  -0.8750000   0.3750000         7  -23
   0.6250000   0.6250000  -0.1250000         8  -10
  -0.8750000   0.1250000   0.3750000         7   -8
   0.1250000   0.1250000  -0.6250000         3   -2
   0.6250000  -0.3750000  -0.1250000         6   19
   0.1250000   0.1250000   0.6250000         3    1
  -0.3750000   0.6250000   0.1250000         6  -12
  -0.3750000  -0.3750000   0.1250000         5   10
  -0.8750000   0.1250000  -0.3750000         7    7
   0.6250000   0.6250000   0.1250000         8    9
   0.1250000  -0.8750000  -0.3750000         7   21
   0.1250000   0.1250000  -0.3750000         2   -2
   0.6250000  -0.3750000   0.1250000         6  -17
   0.1250000   0.1250000   0.8750000         4    1
  -0.3750000   0.6250000   0.3750000        10  -12
  -0.3750000  -0.3750000   0.3750000         9    2
  -0.8750000   0.1250000  -0.1250000         4    7
  -0.3750000  -0.3750000  -0.6250000        10   -1
   0.1250000  -0.8750000  -0.1250000         4   12
   0.1250000   0.1250000  -0.1250000         1   -2
   0.6250000  -0.3750000   0.3750000        10   -7
   0.1250000   0.3750000   0.3750000         5    1
  -0.3750000   0.8750000  -0.1250000         7   11
  -0.3750000  -0.1250000  -0.1250000         2   -5
   0.1250000  -0.6250000   0.3750000         6  -23
  -0.3750000  -0.1250000   0.8750000         7   13
   0.1250000  -0.6250000  -0.6250000         8    4
   0.1250000   0.3750000  -0.6250000         6   -2
   0.6250000  -0.1250000  -0.1250000         3    8
   0.1250000   0.3750000   0.6250000         6    1
  -0.3750000   0.8750000   0.1250000         7  -12
  -0.3750000  -0.1250000   0.1250000         2    6
   0.1250000  -0.6250000   0.6250000         8   -3
  -0.3750000  -0.1250000  -0.8750000         7  -14
   0.1250000  -0.6250000  -0.3750000         6   21
   0.1250000   0.3750000  -0.3750000         5   -2
   0.6250000  -0.1250000   0.1250000         3   -7
   0.1250000   0.3750000   0.8750000         7    1
   0.6250000  -0.1250000  -0.6250000         8    8
  -0.3750000  -0.1250000   0.3750000         5    6
  -0.8750000   0.3750000  -0.1250000         7   17
  -0.3750000  -0.1250000  -0.6250000         6  -14
   0.1250000  -0.6250000  -0.1250000         3   12
   0.1250000   0.3750000  -0.1250000         2  -10
   0.6250000  -0.1250000   0.3750000         6   -7
   0.1250000   0.6250000   0.6250000         8    1
  -0.3750000  -0.8750000   0.1250000         7   10
  -0.3750000   0.1250000   0.1250000         2   -8
   0.1250000  -0.3750000   0.6250000         6   -3
  -0.3750000   0.1250000  -0.8750000         7   16
   0.1250000  -0.3750000  -0.3750000         5    4
   0.1250000   0.6250000  -0.3750000         6  -24
   0.6250000   0.1250000   0.1250000         3    5
   0.3750000   0.3750000   0.3750000         9    1
  -0.1250000   0.8750000  -0.1250000         4   11
  -0.1250000  -0.1250000  -0.1250000         1   -1
   0.3750000  -0.6250000   0.3750000        10  -11
  -0.1250000  -0.1250000   0.8750000         4    2
  -0.6250000   0.3750000   0.3750000        10   -8
   0.3750000   0.3750000  -0.6250000        10   -2
   0.8750000  -0.1250000  -0.1250000         4    8
   0.3750000   0.3750000   0.6250000        10    1
  -0.1250000   0.8750000   0.1250000         4  -12
  -0.1250000  -0.1250000   0.1250000         1    2
  -0.6250000   0.3750000  -0.3750000        10    7
  -0.1250000  -0.1250000  -0.8750000         4   -1
   0.3750000  -0.6250000  -0.3750000        10   12
   0.3750000   0.3750000  -0.3750000         9   -2
   0.8750000  -0.1250000   0.1250000         4   -7

     G-vector sticks info
     --------------------
     sticks:   dense  smooth     PW     G-vecs:    dense   smooth      PW
     Sum         187     187     61                 1687     1687     331



     bravais-lattice index     =            2
     lattice parameter (alat)  =      10.6921  a.u.
     unit-cell volume          =     305.5804 (a.u.)^3
     number of atoms/cell      =            2
     number of atomic types    =            1
     number of electrons       =         8.00
     number of Kohn-Sham states=            8
     kinetic-energy cutoff     =      12.0000  Ry
     charge density cutoff     =      48.0000  Ry
     cutoff for Fock operator  =      48.0000  Ry
     convergence threshold     =      1.0E-06
     mixing beta               =       0.7000
     number of iterations used =            8  plain     mixing
     Exchange-correlation      = PBE0 ( 6  4  8  4 0 0)
     EXX-fraction              =        0.25

     celldm(1)=  10.692070  celldm(2)=   0.000000  celldm(3)=   0.000000
     celldm(4)=   0.000000  celldm(5)=   0.000000  celldm(6)=   0.000000

     crystal axes: (cart. coord. in units of alat)
               a(1) = (  -0.500000   0.000000   0.500000 )  
               a(2) = (   0.000000   0.500000   0.500000 )  
               a(3) = (  -0.500000   0.500000   0.000000 )  

     reciprocal axes: (cart. coord. in units 2 pi/alat)
               b(1) = ( -1.000000 -1.000000  1.000000 )  
               b(2) = (  1.000000  1.000000  1.000000 )  
               b(3) = ( -1.000000  1.000000 -1.000000 )  


     PseudoPot. # 1 for Ge read from file:
     /home/efefer/pseudo/Ge.pz-bhs.UPF
     MD5 check sum: bb78d5f8e158bcc491d4c705bdf69fa7
     Pseudo is Norm-conserving, Zval =  4.0
     Generated by new atomic code, or converted to UPF format
     Using radial grid of  291 points,  2 beta functions with: 
                l(1) =   0
                l(2) =   1

     atomic species   valence    mass     pseudopotential
        Ge             4.00    72.64000     Ge( 1.00)

     24 Sym. Ops. (no inversion) found
          (note: 24 additional sym.ops. were found but ignored
           their fractional translations are incommensurate with FFT grid)


   Cartesian axes

     site n.     atom                  positions (alat units)
         1           Ge  tau(   1) = (   0.0000000   0.0000000   0.0000000  )
         2           Ge  tau(   2) = (   0.2500000   0.2500000   0.2500000  )

     number of k points=    10
                       cart. coord. in units 2pi/alat
        k(    1) = (   0.1250000   0.1250000   0.1250000), wk =   0.0625000
        k(    2) = (   0.1250000   0.1250000   0.3750000), wk =   0.1875000
        k(    3) = (   0.1250000   0.1250000   0.6250000), wk =   0.1875000
        k(    4) = (   0.1250000   0.1250000   0.8750000), wk =   0.1875000
        k(    5) = (   0.1250000   0.3750000   0.3750000), wk =   0.1875000
        k(    6) = (   0.1250000   0.3750000   0.6250000), wk =   0.3750000
        k(    7) = (   0.1250000   0.3750000   0.8750000), wk =   0.3750000
        k(    8) = (   0.1250000   0.6250000   0.6250000), wk =   0.1875000
        k(    9) = (   0.3750000   0.3750000   0.3750000), wk =   0.0625000
        k(   10) = (   0.3750000   0.3750000   0.6250000), wk =   0.1875000

     Dense  grid:     1687 G-vectors     FFT dimensions: (  18,  18,  18)

     Estimated max dynamical RAM per process >     269.65MB

     Initial potential from superposition of free atoms

     starting charge    6.99990, renormalised to    8.00000
     Starting wfc are    8 randomized atomic wfcs

     total cpu time spent up to now is        0.1 secs

     per-process dynamical memory:     5.1 Mb

     Self-consistent Calculation

     iteration #  1     ecut=    12.00 Ry     beta=0.70
     Davidson diagonalization with overlap
     ethr =  1.00E-02,  avg # of iterations =  3.5

     Threshold (ethr) on eigenvalues was too large:
     Diagonalizing with lowered threshold

     Davidson diagonalization with overlap
     ethr =  3.05E-04,  avg # of iterations =  1.9

     total cpu time spent up to now is        0.2 secs

     total energy              =     -16.01151762 Ry
     Harris-Foulkes estimate   =     -16.01259347 Ry
     estimated scf accuracy    <       0.02462945 Ry

     iteration #  2     ecut=    12.00 Ry     beta=0.70
     Davidson diagonalization with overlap
     ethr =  3.08E-04,  avg # of iterations =  1.3

     total cpu time spent up to now is        0.3 secs

     total energy              =     -16.01154784 Ry
     Harris-Foulkes estimate   =     -16.01166199 Ry
     estimated scf accuracy    <       0.00219352 Ry

     iteration #  3     ecut=    12.00 Ry     beta=0.70
     Davidson diagonalization with overlap
     ethr =  2.74E-05,  avg # of iterations =  1.0

     total cpu time spent up to now is        0.3 secs

     total energy              =     -16.01156585 Ry
     Harris-Foulkes estimate   =     -16.01156606 Ry
     estimated scf accuracy    <       0.00000223 Ry

     iteration #  4     ecut=    12.00 Ry     beta=0.70
     Davidson diagonalization with overlap
     ethr =  2.79E-08,  avg # of iterations =  3.1

     total cpu time spent up to now is        0.4 secs

     End of self-consistent calculation

          k = 0.1250 0.1250 0.1250 (   208 PWs)   bands (ev):

    -6.9271   3.1485   5.1172   5.1172   6.8362   8.4944   8.4944   9.1356

          k = 0.1250 0.1250 0.3750 (   215 PWs)   bands (ev):

    -6.4640   1.2738   3.9853   4.0526   7.5281   8.3448  10.0393  10.4296

          k = 0.1250 0.1250 0.6250 (   217 PWs)   bands (ev):

    -5.5511  -0.6541   2.6774   3.1370   6.8596   8.3727  11.3600  11.9152

          k = 0.1250 0.1250 0.8750 (   214 PWs)   bands (ev):

    -4.2213  -2.5289   1.9932   2.6460   6.4903   7.5507  13.5447  13.7735

          k = 0.1250 0.3750 0.3750 (   212 PWs)   bands (ev):

    -6.0301  -0.0584   2.9747   4.5482   7.3711   9.2668   9.4995  11.4156

          k = 0.1250 0.3750 0.6250 (   214 PWs)   bands (ev):

    -5.2007  -1.3793   2.0011   3.4190   8.1355   9.0123  10.5131  11.6618

          k = 0.1250 0.3750 0.8750 (   215 PWs)   bands (ev):

    -4.1143  -2.5955   1.4214   2.4559   7.9116   9.8794  10.6864  12.7142

          k = 0.1250 0.6250 0.6250 (   217 PWs)   bands (ev):

    -4.6194  -2.1490   1.4049   3.4333   7.2552  10.7365  11.1505  12.4455

          k = 0.3750 0.3750 0.3750 (   217 PWs)   bands (ev):

    -5.6687  -1.1929   4.2192   4.2192   6.0303   9.2507   9.2507  13.0037

          k = 0.3750 0.3750 0.6250 (   219 PWs)   bands (ev):

    -5.0759  -1.9891   2.8746   3.7495   7.0868   9.0890   9.9386  12.8258

     highest occupied, lowest unoccupied level (ev):     5.1172    6.0303

!    total energy              =     -16.01156720 Ry
     Harris-Foulkes estimate   =     -16.01156718 Ry
     estimated scf accuracy    <       0.00000008 Ry

     convergence has been achieved in   4 iterations

     EXX: now go back to refine exchange calculation

     total cpu time spent up to now is        1.1 secs

     per-process dynamical memory:    67.6 Mb

     Self-consistent Calculation

     iteration #  1     ecut=    12.00 Ry     beta=0.70
     Davidson diagonalization with overlap
     ethr =  2.79E-08,  avg # of iterations =  4.2

     total cpu time spent up to now is        7.7 secs

     total energy              =     -16.02923290 Ry
     Harris-Foulkes estimate   =     -16.02926560 Ry
     estimated scf accuracy    <       0.00009677 Ry

     iteration #  2     ecut=    12.00 Ry     beta=0.70
     Davidson diagonalization with overlap
     ethr =  1.21E-06,  avg # of iterations =  1.0

     total cpu time spent up to now is       10.5 secs

     total energy              =     -16.02923653 Ry
     Harris-Foulkes estimate   =     -16.02923716 Ry
     estimated scf accuracy    <       0.00000405 Ry

     iteration #  3     ecut=    12.00 Ry     beta=0.70
     Davidson diagonalization with overlap
     ethr =  5.07E-08,  avg # of iterations =  2.0

     total cpu time spent up to now is       13.6 secs

     End of self-consistent calculation

          k = 0.1250 0.1250 0.1250 (   208 PWs)   bands (ev):

    -8.9579   2.1626   4.1619   4.1619   7.7117   9.3039   9.3039  10.0515

          k = 0.1250 0.1250 0.3750 (   215 PWs)   bands (ev):

    -8.4633   0.2405   3.0481   3.0629   8.3092   9.2189  10.9100  11.2925

          k = 0.1250 0.1250 0.6250 (   217 PWs)   bands (ev):

    -7.5051  -1.7676   1.6937   2.1198   7.5851   9.1637  12.2586  12.8291

          k = 0.1250 0.1250 0.8750 (   214 PWs)   bands (ev):

    -6.0174  -3.9325   1.0170   1.6078   7.2069   8.2883  14.5690  14.7871

          k = 0.1250 0.3750 0.3750 (   212 PWs)   bands (ev):

    -8.0073  -1.1680   1.9832   3.6222   8.2225  10.0679  10.3384  12.2936

          k = 0.1250 0.3750 0.6250 (   214 PWs)   bands (ev):

    -7.0837  -2.6655   1.0213   2.4536   8.9391   9.8336  11.3212  12.5704

          k = 0.1250 0.3750 0.8750 (   215 PWs)   bands (ev):

    -5.8337  -4.0953   0.4657   1.4534   8.6685  10.6935  11.5197  13.6734

          k = 0.1250 0.6250 0.6250 (   217 PWs)   bands (ev):

    -6.3862  -3.5765   0.4594   2.4435   8.0169  11.6342  12.0367  13.3573

          k = 0.3750 0.3750 0.3750 (   217 PWs)   bands (ev):

    -7.6317  -2.3502   3.2496   3.2496   6.8318  10.0760  10.0760  13.9331

          k = 0.3750 0.3750 0.6250 (   219 PWs)   bands (ev):

    -6.9119  -3.3612   1.9189   2.7455   7.8760   9.9425  10.7888  13.7163

     highest occupied, lowest unoccupied level (ev):     4.1619    6.8318

!    total energy              =     -16.02923708 Ry
     Harris-Foulkes estimate   =     -16.02923711 Ry
     estimated scf accuracy    <       0.00000008 Ry

     convergence has been achieved in   3 iterations

     total energy              =     -16.02934029 Ry
     Harris-Foulkes estimate   =     -16.02934032 Ry
     est. exchange err (dexx)  =       0.00010321 Ry
     - averaged Fock potential =       2.07347724 Ry
     + Fock energy             =      -1.03689351 Ry

     EXX: now go back to refine exchange calculation

     total cpu time spent up to now is       14.9 secs

     per-process dynamical memory:    69.6 Mb

     Self-consistent Calculation

     iteration #  1     ecut=    12.00 Ry     beta=0.70
     Davidson diagonalization with overlap
     ethr =  5.07E-08,  avg # of iterations =  3.0

     total cpu time spent up to now is       18.9 secs

     total energy              =     -16.02935385 Ry
     Harris-Foulkes estimate   =     -16.02935429 Ry
     estimated scf accuracy    <       0.00000120 Ry

     iteration #  2     ecut=    12.00 Ry     beta=0.70
     Davidson diagonalization with overlap
     ethr =  1.50E-08,  avg # of iterations =  1.0

     total cpu time spent up to now is       21.7 secs

     End of self-consistent calculation

          k = 0.1250 0.1250 0.1250 (   208 PWs)   bands (ev):

    -8.9573   2.1604   4.1463   4.1463   7.7309   9.3080   9.3080  10.0559

          k = 0.1250 0.1250 0.3750 (   215 PWs)   bands (ev):

    -8.4610   0.2442   3.0434   3.0528   8.3163   9.2269  10.9105  11.2938

          k = 0.1250 0.1250 0.6250 (   217 PWs)   bands (ev):

    -7.5035  -1.7614   1.6903   2.1112   7.5911   9.1669  12.2590  12.8265

          k = 0.1250 0.1250 0.8750 (   214 PWs)   bands (ev):

    -6.0177  -3.9305   1.0138   1.5980   7.2143   8.2888  14.5713  14.7857

          k = 0.1250 0.3750 0.3750 (   212 PWs)   bands (ev):

    -8.0050  -1.1650   1.9792   3.6117   8.2353  10.0687  10.3416  12.2949

          k = 0.1250 0.3750 0.6250 (   214 PWs)   bands (ev):

    -7.0809  -2.6624   1.0192   2.4482   8.9432   9.8354  11.3187  12.5701

          k = 0.1250 0.3750 0.8750 (   215 PWs)   bands (ev):

    -5.8305  -4.0929   0.4643   1.4492   8.6699  10.6927  11.5183  13.6751

          k = 0.1250 0.6250 0.6250 (   217 PWs)   bands (ev):

    -6.3831  -3.5753   0.4589   2.4342   8.0262  11.6364  12.0358  13.3582

          k = 0.3750 0.3750 0.3750 (   217 PWs)   bands (ev):

    -7.6323  -2.3489   3.2362   3.2362   6.8499  10.0809  10.0809  13.9377

          k = 0.3750 0.3750 0.6250 (   219 PWs)   bands (ev):

    -6.9105  -3.3618   1.9166   2.7338   7.8838   9.9461  10.7883  13.7149

     highest occupied, lowest unoccupied level (ev):     4.1463    6.8499

!    total energy              =     -16.02935388 Ry
     Harris-Foulkes estimate   =     -16.02935390 Ry
     estimated scf accuracy    <       0.00000006 Ry

     convergence has been achieved in   2 iterations

     total energy              =     -16.02935599 Ry
     Harris-Foulkes estimate   =     -16.02935600 Ry
     est. exchange err (dexx)  =       0.00000210 Ry
     - averaged Fock potential =       2.07384038 Ry
     + Fock energy             =      -1.03694897 Ry

     EXX: now go back to refine exchange calculation

     total cpu time spent up to now is       23.0 secs

     per-process dynamical memory:    69.6 Mb

     Self-consistent Calculation

     iteration #  1     ecut=    12.00 Ry     beta=0.70
     Davidson diagonalization with overlap
     ethr =  1.50E-08,  avg # of iterations =  2.0

     Threshold (ethr) on eigenvalues was too large:
     Diagonalizing with lowered threshold

     Davidson diagonalization with overlap
     ethr =  1.54E-10,  avg # of iterations =  2.2

     total cpu time spent up to now is       29.5 secs

     End of self-consistent calculation

          k = 0.1250 0.1250 0.1250 (   208 PWs)   bands (ev):

    -8.9576   2.1599   4.1440   4.1440   7.7332   9.3084   9.3084  10.0563

          k = 0.1250 0.1250 0.3750 (   215 PWs)   bands (ev):

    -8.4610   0.2446   3.0426   3.0513   8.3169   9.2277  10.9103  11.2939

          k = 0.1250 0.1250 0.6250 (   217 PWs)   bands (ev):

    -7.5036  -1.7609   1.6898   2.1099   7.5917   9.1670  12.2589  12.8259

          k = 0.1250 0.1250 0.8750 (   214 PWs)   bands (ev):

    -6.0179  -3.9305   1.0131   1.5965   7.2152   8.2886  14.5713  14.7854

          k = 0.1250 0.3750 0.3750 (   212 PWs)   bands (ev):

    -8.0049  -1.1649   1.9784   3.6102   8.2368  10.0685  10.3417  12.2950

          k = 0.1250 0.3750 0.6250 (   214 PWs)   bands (ev):

    -7.0807  -2.6622   1.0187   2.4473   8.9435   9.8354  11.3181  12.5698

          k = 0.1250 0.3750 0.8750 (   215 PWs)   bands (ev):

    -5.8303  -4.0927   0.4638   1.4485   8.6699  10.6923  11.5179  13.6751

          k = 0.1250 0.6250 0.6250 (   217 PWs)   bands (ev):

    -6.3830  -3.5754   0.4586   2.4328   8.0273  11.6365  12.0354  13.3582

          k = 0.3750 0.3750 0.3750 (   217 PWs)   bands (ev):

    -7.6328  -2.3490   3.2342   3.2342   6.8521  10.0815  10.0815  13.9382

          k = 0.3750 0.3750 0.6250 (   219 PWs)   bands (ev):

    -6.9104  -3.3621   1.9160   2.7320   7.8845   9.9464  10.7882  13.7143

     highest occupied, lowest unoccupied level (ev):     4.1440    6.8521

!    total energy              =     -16.02935633 Ry
     Harris-Foulkes estimate   =     -16.02935633 Ry
     estimated scf accuracy    <       0.00000001 Ry

     convergence has been achieved in   1 iterations

!!   total energy              =     -16.02935640 Ry
     Harris-Foulkes estimate   =     -16.02935640 Ry
     est. exchange err (dexx)  =       0.00000007 Ry
     - averaged Fock potential =       2.07391537 Ry
     + Fock energy             =      -1.03696647 Ry

     EXX self-consistency reached


     Computing stress (Cartesian axis) and pressure

          total   stress  (Ry/bohr**3)                   (kbar)     P=  -76.63
  -0.00052095  -0.00000000   0.00000000        -76.63     -0.00      0.00
  -0.00000000  -0.00052095  -0.00000000         -0.00    -76.63     -0.00
  -0.00000000  -0.00000000  -0.00052095         -0.00     -0.00    -76.63


     Writing output data file pwscf.save

     init_run     :      0.06s CPU      0.07s WALL (       1 calls)
     electrons    :     25.52s CPU     25.99s WALL (       4 calls)
     stress       :      0.60s CPU      0.60s WALL (       1 calls)

     Called by init_run:
     wfcinit      :      0.02s CPU      0.02s WALL (       1 calls)
     potinit      :      0.01s CPU      0.01s WALL (       1 calls)

     Called by electrons:
     c_bands      :     25.35s CPU     25.82s WALL (      12 calls)
     sum_band     :      0.11s CPU      0.11s WALL (      12 calls)
     v_of_rho     :      0.06s CPU      0.07s WALL (      12 calls)
     mix_rho      :      0.01s CPU      0.00s WALL (      12 calls)

     Called by c_bands:
     init_us_2    :      0.02s CPU      0.02s WALL (     260 calls)
     cegterg      :     25.33s CPU     25.81s WALL (     120 calls)

     Called by sum_band:

     Called by *egterg:
     h_psi        :     25.23s CPU     25.70s WALL (     392 calls)
     g_psi        :      0.01s CPU      0.01s WALL (     262 calls)
     cdiaghg      :      0.06s CPU      0.07s WALL (     332 calls)

     Called by h_psi:
     h_psi:pot    :      0.45s CPU      0.48s WALL (     392 calls)
     h_psi:calbec :      0.00s CPU      0.01s WALL (     392 calls)
     vloc_psi     :      0.43s CPU      0.46s WALL (     392 calls)
     add_vuspsi   :      0.02s CPU      0.01s WALL (     392 calls)

     General routines
     calbec       :      0.00s CPU      0.01s WALL (     402 calls)
     fft          :      0.02s CPU      0.01s WALL (     135 calls)
     fftw         :      0.43s CPU      0.49s WALL (    5972 calls)
     fftc         :     21.02s CPU     21.41s WALL (  226048 calls)
     fftcw        :      0.41s CPU      0.43s WALL (    5092 calls)
     davcio       :      0.00s CPU      0.01s WALL (      10 calls)

     Parallel routines
     fft_scatter  :      1.97s CPU      1.93s WALL (  237247 calls)

     EXX routines
     exx_grid     :      0.00s CPU      0.00s WALL (       1 calls)
     exxinit      :      0.24s CPU      0.26s WALL (       4 calls)
     vexx         :     24.78s CPU     25.21s WALL (     224 calls)
     exxenergy    :      4.34s CPU      4.42s WALL (       7 calls)

     PWSCF        :    30.88s CPU        31.55s WALL


   This run was terminated on:  16: 2: 6  12Apr2017            

=------------------------------------------------------------------------------=
   JOB DONE.
=------------------------------------------------------------------------------=
