
     Program PWSCF v.6.1 (svn rev. 13369) starts on 12Apr2017 at 17:17: 4 

     This program is part of the open-source Quantum ESPRESSO suite
     for quantum simulation of materials; please cite
         "P. Giannozzi et al., J. Phys.:Condens. Matter 21 395502 (2009);
          URL http://www.quantum-espresso.org", 
     in publications or presentations arising from this work. More details at
     http://www.quantum-espresso.org/quote

     Parallel version (MPI), running on     1 processors
     Waiting for input...
     Reading input from standard input

     Current dimensions of program PWSCF are:
     Max number of different atomic species (ntypx) = 10
     Max number of k-points (npk) =  40000
     Max angular momentum in pseudopotentials (lmaxx) =  3

     IMPORTANT: XC functional enforced from input :
     Exchange-correlation      = GAUPBE ( 1  4 20  4 0 0)
     EXX-fraction              =        0.24
     Any further DFT definition will be discarded
     Please, verify this is what you really want


     Subspace diagonalization in iterative solution of the eigenvalue problem:
     a serial algorithm will be used

     EXX: setup a grid of 80 q-points centered on each k-point
     (k+q)-points:
   0.1250000   0.1250000   0.1250000         1    1
  -0.3750000   0.6250000  -0.3750000        10   11
  -0.3750000  -0.3750000  -0.3750000         9   -1
   0.1250000  -0.8750000   0.1250000         4  -11
  -0.3750000  -0.3750000   0.6250000        10    2
  -0.8750000   0.1250000   0.1250000         4   -8
   0.1250000   0.1250000  -0.8750000         4   -2
   0.6250000  -0.3750000  -0.3750000        10    8
   0.1250000   0.1250000   0.3750000         2    1
  -0.3750000   0.6250000  -0.1250000         6   11
  -0.3750000  -0.3750000  -0.1250000         5   -9
   0.1250000  -0.8750000   0.3750000         7  -23
   0.6250000   0.6250000  -0.1250000         8  -10
  -0.8750000   0.1250000   0.3750000         7   -8
   0.1250000   0.1250000  -0.6250000         3   -2
   0.6250000  -0.3750000  -0.1250000         6   19
   0.1250000   0.1250000   0.6250000         3    1
  -0.3750000   0.6250000   0.1250000         6  -12
  -0.3750000  -0.3750000   0.1250000         5   10
  -0.8750000   0.1250000  -0.3750000         7    7
   0.6250000   0.6250000   0.1250000         8    9
   0.1250000  -0.8750000  -0.3750000         7   21
   0.1250000   0.1250000  -0.3750000         2   -2
   0.6250000  -0.3750000   0.1250000         6  -17
   0.1250000   0.1250000   0.8750000         4    1
  -0.3750000   0.6250000   0.3750000        10  -12
  -0.3750000  -0.3750000   0.3750000         9    2
  -0.8750000   0.1250000  -0.1250000         4    7
  -0.3750000  -0.3750000  -0.6250000        10   -1
   0.1250000  -0.8750000  -0.1250000         4   12
   0.1250000   0.1250000  -0.1250000         1   -2
   0.6250000  -0.3750000   0.3750000        10   -7
   0.1250000   0.3750000   0.3750000         5    1
  -0.3750000   0.8750000  -0.1250000         7   11
  -0.3750000  -0.1250000  -0.1250000         2   -5
   0.1250000  -0.6250000   0.3750000         6  -23
  -0.3750000  -0.1250000   0.8750000         7   13
   0.1250000  -0.6250000  -0.6250000         8    4
   0.1250000   0.3750000  -0.6250000         6   -2
   0.6250000  -0.1250000  -0.1250000         3    8
   0.1250000   0.3750000   0.6250000         6    1
  -0.3750000   0.8750000   0.1250000         7  -12
  -0.3750000  -0.1250000   0.1250000         2    6
   0.1250000  -0.6250000   0.6250000         8   -3
  -0.3750000  -0.1250000  -0.8750000         7  -14
   0.1250000  -0.6250000  -0.3750000         6   21
   0.1250000   0.3750000  -0.3750000         5   -2
   0.6250000  -0.1250000   0.1250000         3   -7
   0.1250000   0.3750000   0.8750000         7    1
   0.6250000  -0.1250000  -0.6250000         8    8
  -0.3750000  -0.1250000   0.3750000         5    6
  -0.8750000   0.3750000  -0.1250000         7   17
  -0.3750000  -0.1250000  -0.6250000         6  -14
   0.1250000  -0.6250000  -0.1250000         3   12
   0.1250000   0.3750000  -0.1250000         2  -10
   0.6250000  -0.1250000   0.3750000         6   -7
   0.1250000   0.6250000   0.6250000         8    1
  -0.3750000  -0.8750000   0.1250000         7   10
  -0.3750000   0.1250000   0.1250000         2   -8
   0.1250000  -0.3750000   0.6250000         6   -3
  -0.3750000   0.1250000  -0.8750000         7   16
   0.1250000  -0.3750000  -0.3750000         5    4
   0.1250000   0.6250000  -0.3750000         6  -24
   0.6250000   0.1250000   0.1250000         3    5
   0.3750000   0.3750000   0.3750000         9    1
  -0.1250000   0.8750000  -0.1250000         4   11
  -0.1250000  -0.1250000  -0.1250000         1   -1
   0.3750000  -0.6250000   0.3750000        10  -11
  -0.1250000  -0.1250000   0.8750000         4    2
  -0.6250000   0.3750000   0.3750000        10   -8
   0.3750000   0.3750000  -0.6250000        10   -2
   0.8750000  -0.1250000  -0.1250000         4    8
   0.3750000   0.3750000   0.6250000        10    1
  -0.1250000   0.8750000   0.1250000         4  -12
  -0.1250000  -0.1250000   0.1250000         1    2
  -0.6250000   0.3750000  -0.3750000        10    7
  -0.1250000  -0.1250000  -0.8750000         4   -1
   0.3750000  -0.6250000  -0.3750000        10   12
   0.3750000   0.3750000  -0.3750000         9   -2
   0.8750000  -0.1250000   0.1250000         4   -7

     G-vector sticks info
     --------------------
     sticks:   dense  smooth     PW     G-vecs:    dense   smooth      PW
     Sum         187     187     61                 1687     1687     331



     bravais-lattice index     =            2
     lattice parameter (alat)  =      10.6921  a.u.
     unit-cell volume          =     305.5804 (a.u.)^3
     number of atoms/cell      =            2
     number of atomic types    =            1
     number of electrons       =         8.00
     number of Kohn-Sham states=            8
     kinetic-energy cutoff     =      12.0000  Ry
     charge density cutoff     =      48.0000  Ry
     cutoff for Fock operator  =      48.0000  Ry
     convergence threshold     =      1.0E-06
     mixing beta               =       0.7000
     number of iterations used =            8  plain     mixing
     Exchange-correlation      = GAUPBE ( 1  4 20  4 0 0)
     EXX-fraction              =        0.24

     celldm(1)=  10.692070  celldm(2)=   0.000000  celldm(3)=   0.000000
     celldm(4)=   0.000000  celldm(5)=   0.000000  celldm(6)=   0.000000

     crystal axes: (cart. coord. in units of alat)
               a(1) = (  -0.500000   0.000000   0.500000 )  
               a(2) = (   0.000000   0.500000   0.500000 )  
               a(3) = (  -0.500000   0.500000   0.000000 )  

     reciprocal axes: (cart. coord. in units 2 pi/alat)
               b(1) = ( -1.000000 -1.000000  1.000000 )  
               b(2) = (  1.000000  1.000000  1.000000 )  
               b(3) = ( -1.000000  1.000000 -1.000000 )  


     PseudoPot. # 1 for Ge read from file:
     /home/efefer/pseudo/Ge.pz-bhs.UPF
     MD5 check sum: bb78d5f8e158bcc491d4c705bdf69fa7
     Pseudo is Norm-conserving, Zval =  4.0
     Generated by new atomic code, or converted to UPF format
     Using radial grid of  291 points,  2 beta functions with: 
                l(1) =   0
                l(2) =   1

     atomic species   valence    mass     pseudopotential
        Ge             4.00    72.64000     Ge( 1.00)

     24 Sym. Ops. (no inversion) found
          (note: 24 additional sym.ops. were found but ignored
           their fractional translations are incommensurate with FFT grid)


   Cartesian axes

     site n.     atom                  positions (alat units)
         1           Ge  tau(   1) = (   0.0000000   0.0000000   0.0000000  )
         2           Ge  tau(   2) = (   0.2500000   0.2500000   0.2500000  )

     number of k points=    10
                       cart. coord. in units 2pi/alat
        k(    1) = (   0.1250000   0.1250000   0.1250000), wk =   0.0625000
        k(    2) = (   0.1250000   0.1250000   0.3750000), wk =   0.1875000
        k(    3) = (   0.1250000   0.1250000   0.6250000), wk =   0.1875000
        k(    4) = (   0.1250000   0.1250000   0.8750000), wk =   0.1875000
        k(    5) = (   0.1250000   0.3750000   0.3750000), wk =   0.1875000
        k(    6) = (   0.1250000   0.3750000   0.6250000), wk =   0.3750000
        k(    7) = (   0.1250000   0.3750000   0.8750000), wk =   0.3750000
        k(    8) = (   0.1250000   0.6250000   0.6250000), wk =   0.1875000
        k(    9) = (   0.3750000   0.3750000   0.3750000), wk =   0.0625000
        k(   10) = (   0.3750000   0.3750000   0.6250000), wk =   0.1875000

     Dense  grid:     1687 G-vectors     FFT dimensions: (  18,  18,  18)

     Estimated max dynamical RAM per process >     269.65MB

     Initial potential from superposition of free atoms

     starting charge    6.99990, renormalised to    8.00000
     Starting wfc are    8 randomized atomic wfcs

     total cpu time spent up to now is        0.1 secs

     per-process dynamical memory:     5.1 Mb

     Self-consistent Calculation

     iteration #  1     ecut=    12.00 Ry     beta=0.70
     Davidson diagonalization with overlap
     ethr =  1.00E-02,  avg # of iterations =  3.5

     Threshold (ethr) on eigenvalues was too large:
     Diagonalizing with lowered threshold

     Davidson diagonalization with overlap
     ethr =  3.05E-04,  avg # of iterations =  1.9

     total cpu time spent up to now is        0.2 secs

     total energy              =     -16.01151762 Ry
     Harris-Foulkes estimate   =     -16.01259347 Ry
     estimated scf accuracy    <       0.02462945 Ry

     iteration #  2     ecut=    12.00 Ry     beta=0.70
     Davidson diagonalization with overlap
     ethr =  3.08E-04,  avg # of iterations =  1.3

     total cpu time spent up to now is        0.3 secs

     total energy              =     -16.01154784 Ry
     Harris-Foulkes estimate   =     -16.01166199 Ry
     estimated scf accuracy    <       0.00219352 Ry

     iteration #  3     ecut=    12.00 Ry     beta=0.70
     Davidson diagonalization with overlap
     ethr =  2.74E-05,  avg # of iterations =  1.0

     total cpu time spent up to now is        0.3 secs

     total energy              =     -16.01156585 Ry
     Harris-Foulkes estimate   =     -16.01156606 Ry
     estimated scf accuracy    <       0.00000223 Ry

     iteration #  4     ecut=    12.00 Ry     beta=0.70
     Davidson diagonalization with overlap
     ethr =  2.79E-08,  avg # of iterations =  3.1

     total cpu time spent up to now is        0.4 secs

     End of self-consistent calculation

          k = 0.1250 0.1250 0.1250 (   208 PWs)   bands (ev):

    -6.9271   3.1485   5.1172   5.1172   6.8362   8.4944   8.4944   9.1356

          k = 0.1250 0.1250 0.3750 (   215 PWs)   bands (ev):

    -6.4640   1.2738   3.9853   4.0526   7.5281   8.3448  10.0393  10.4296

          k = 0.1250 0.1250 0.6250 (   217 PWs)   bands (ev):

    -5.5511  -0.6541   2.6774   3.1370   6.8596   8.3727  11.3600  11.9152

          k = 0.1250 0.1250 0.8750 (   214 PWs)   bands (ev):

    -4.2213  -2.5289   1.9932   2.6460   6.4903   7.5507  13.5447  13.7735

          k = 0.1250 0.3750 0.3750 (   212 PWs)   bands (ev):

    -6.0301  -0.0584   2.9747   4.5482   7.3711   9.2668   9.4995  11.4156

          k = 0.1250 0.3750 0.6250 (   214 PWs)   bands (ev):

    -5.2007  -1.3793   2.0011   3.4190   8.1355   9.0123  10.5131  11.6618

          k = 0.1250 0.3750 0.8750 (   215 PWs)   bands (ev):

    -4.1143  -2.5955   1.4214   2.4559   7.9116   9.8794  10.6864  12.7142

          k = 0.1250 0.6250 0.6250 (   217 PWs)   bands (ev):

    -4.6194  -2.1490   1.4049   3.4333   7.2552  10.7365  11.1505  12.4455

          k = 0.3750 0.3750 0.3750 (   217 PWs)   bands (ev):

    -5.6687  -1.1929   4.2192   4.2192   6.0303   9.2507   9.2507  13.0037

          k = 0.3750 0.3750 0.6250 (   219 PWs)   bands (ev):

    -5.0759  -1.9891   2.8746   3.7495   7.0868   9.0890   9.9386  12.8258

     highest occupied, lowest unoccupied level (ev):     5.1172    6.0303

!    total energy              =     -16.01156720 Ry
     Harris-Foulkes estimate   =     -16.01156718 Ry
     estimated scf accuracy    <       0.00000008 Ry

     convergence has been achieved in   4 iterations

     EXX: now go back to refine exchange calculation

     total cpu time spent up to now is        1.3 secs

     per-process dynamical memory:    67.6 Mb

     Self-consistent Calculation

     iteration #  1     ecut=    12.00 Ry     beta=0.70
     Davidson diagonalization with overlap
     ethr =  2.79E-08,  avg # of iterations =  4.2

     total cpu time spent up to now is        7.7 secs

     total energy              =     -16.03612822 Ry
     Harris-Foulkes estimate   =     -16.03617786 Ry
     estimated scf accuracy    <       0.00008480 Ry

     iteration #  2     ecut=    12.00 Ry     beta=0.70
     Davidson diagonalization with overlap
     ethr =  1.06E-06,  avg # of iterations =  1.0

     total cpu time spent up to now is       10.4 secs

     total energy              =     -16.03610523 Ry
     Harris-Foulkes estimate   =     -16.03612911 Ry
     estimated scf accuracy    <       0.00000658 Ry

     iteration #  3     ecut=    12.00 Ry     beta=0.70
     Davidson diagonalization with overlap
     ethr =  8.22E-08,  avg # of iterations =  1.0

     total cpu time spent up to now is       13.2 secs

     End of self-consistent calculation

          k = 0.1250 0.1250 0.1250 (   208 PWs)   bands (ev):

    -9.1098   2.4658   4.4935   4.4935   7.2436   8.7979   8.7979   9.6408

          k = 0.1250 0.1250 0.3750 (   215 PWs)   bands (ev):

    -8.5957   0.5126   3.3731   3.3843   7.8422   8.7416  10.4302  10.8731

          k = 0.1250 0.1250 0.6250 (   217 PWs)   bands (ev):

    -7.6104  -1.5389   2.0215   2.4325   7.1280   8.7312  11.8296  12.3678

          k = 0.1250 0.1250 0.8750 (   214 PWs)   bands (ev):

    -6.0417  -3.8099   1.3489   1.9139   6.7716   7.8611  14.1760  14.3566

          k = 0.1250 0.3750 0.3750 (   212 PWs)   bands (ev):

    -8.1254  -0.9182   2.3115   3.9391   7.7544   9.5611   9.9038  11.9101

          k = 0.1250 0.3750 0.6250 (   214 PWs)   bands (ev):

    -7.1519  -2.4969   1.3631   2.7683   8.4803   9.3874  10.8997  12.1368

          k = 0.1250 0.3750 0.8750 (   215 PWs)   bands (ev):

    -5.8426  -4.0164   0.8183   1.7719   8.2272  10.2602  11.0905  13.2530

          k = 0.1250 0.6250 0.6250 (   217 PWs)   bands (ev):

    -6.4259  -3.4700   0.8154   2.7488   7.5692  11.2358  11.5698  12.9519

          k = 0.3750 0.3750 0.3750 (   217 PWs)   bands (ev):

    -7.7473  -2.1028   3.5727   3.5727   6.3770   9.5979   9.5979  13.6728

          k = 0.3750 0.3750 0.6250 (   219 PWs)   bands (ev):

    -6.9599  -3.2023   2.2550   3.0556   7.4190   9.5138  10.3287  13.3510

     highest occupied, lowest unoccupied level (ev):     4.4935    6.3770

!    total energy              =     -16.03610051 Ry
     Harris-Foulkes estimate   =     -16.03610555 Ry
     estimated scf accuracy    <       0.00000002 Ry

     convergence has been achieved in   3 iterations

     total energy              =     -16.03622858 Ry
     Harris-Foulkes estimate   =     -16.03623362 Ry
     est. exchange err (dexx)  =       0.00012807 Ry
     - averaged Fock potential =       1.68660449 Ry
     + Fock energy             =      -0.84502221 Ry

     EXX: now go back to refine exchange calculation

     total cpu time spent up to now is       14.5 secs

     per-process dynamical memory:    69.6 Mb

     Self-consistent Calculation

     iteration #  1     ecut=    12.00 Ry     beta=0.70
     Davidson diagonalization with overlap
     ethr =  8.22E-08,  avg # of iterations =  3.0

     total cpu time spent up to now is       18.3 secs

     total energy              =     -16.03624761 Ry
     Harris-Foulkes estimate   =     -16.03624304 Ry
     estimated scf accuracy    <       0.00000205 Ry

     iteration #  2     ecut=    12.00 Ry     beta=0.70
     Davidson diagonalization with overlap
     ethr =  2.56E-08,  avg # of iterations =  1.0

     total cpu time spent up to now is       21.0 secs

     End of self-consistent calculation

          k = 0.1250 0.1250 0.1250 (   208 PWs)   bands (ev):

    -9.1062   2.4609   4.4681   4.4681   7.2718   8.8083   8.8083   9.6477

          k = 0.1250 0.1250 0.3750 (   215 PWs)   bands (ev):

    -8.5916   0.5152   3.3612   3.3666   7.8565   8.7549  10.4332  10.8792

          k = 0.1250 0.1250 0.6250 (   217 PWs)   bands (ev):

    -7.6084  -1.5339   2.0135   2.4181   7.1439   8.7431  11.8326  12.3670

          k = 0.1250 0.1250 0.8750 (   214 PWs)   bands (ev):

    -6.0427  -3.8091   1.3438   1.8998   6.7910   7.8700  14.1814  14.3594

          k = 0.1250 0.3750 0.3750 (   212 PWs)   bands (ev):

    -8.1215  -0.9166   2.3033   3.9190   7.7751   9.5664   9.9117  11.9171

          k = 0.1250 0.3750 0.6250 (   214 PWs)   bands (ev):

    -7.1492  -2.4943   1.3607   2.7556   8.4909   9.3953  10.9029  12.1381

          k = 0.1250 0.3750 0.8750 (   215 PWs)   bands (ev):

    -5.8407  -4.0158   0.8186   1.7639   8.2363  10.2645  11.0935  13.2595

          k = 0.1250 0.6250 0.6250 (   217 PWs)   bands (ev):

    -6.4248  -3.4703   0.8174   2.7329   7.5892  11.2422  11.5731  12.9584

          k = 0.3750 0.3750 0.3750 (   217 PWs)   bands (ev):

    -7.7474  -2.1011   3.5508   3.5508   6.4064   9.6104   9.6104  13.6863

          k = 0.3750 0.3750 0.6250 (   219 PWs)   bands (ev):

    -6.9592  -3.2010   2.2497   3.0369   7.4343   9.5234  10.3334  13.3550

     highest occupied, lowest unoccupied level (ev):     4.4681    6.4064

!    total energy              =     -16.03624728 Ry
     Harris-Foulkes estimate   =     -16.03624768 Ry
     estimated scf accuracy    <       0.00000010 Ry

     convergence has been achieved in   2 iterations

     total energy              =     -16.03624912 Ry
     Harris-Foulkes estimate   =     -16.03624952 Ry
     est. exchange err (dexx)  =       0.00000184 Ry
     - averaged Fock potential =       1.69045981 Ry
     + Fock energy             =      -0.84543944 Ry

     EXX: now go back to refine exchange calculation

     total cpu time spent up to now is       22.3 secs

     per-process dynamical memory:    69.6 Mb

     Self-consistent Calculation

     iteration #  1     ecut=    12.00 Ry     beta=0.70
     Davidson diagonalization with overlap
     ethr =  2.56E-08,  avg # of iterations =  1.8

     Threshold (ethr) on eigenvalues was too large:
     Diagonalizing with lowered threshold

     Davidson diagonalization with overlap
     ethr =  4.59E-10,  avg # of iterations =  2.0

     total cpu time spent up to now is       28.4 secs

     End of self-consistent calculation

          k = 0.1250 0.1250 0.1250 (   208 PWs)   bands (ev):

    -9.1059   2.4610   4.4658   4.4658   7.2742   8.8098   8.8098   9.6478

          k = 0.1250 0.1250 0.3750 (   215 PWs)   bands (ev):

    -8.5913   0.5156   3.3604   3.3651   7.8576   8.7562  10.4336  10.8800

          k = 0.1250 0.1250 0.6250 (   217 PWs)   bands (ev):

    -7.6079  -1.5340   2.0129   2.4169   7.1456   8.7443  11.8332  12.3674

          k = 0.1250 0.1250 0.8750 (   214 PWs)   bands (ev):

    -6.0422  -3.8092   1.3431   1.8987   6.7929   7.8710  14.1823  14.3606

          k = 0.1250 0.3750 0.3750 (   212 PWs)   bands (ev):

    -8.1210  -0.9167   2.3029   3.9171   7.7771   9.5673   9.9123  11.9182

          k = 0.1250 0.3750 0.6250 (   214 PWs)   bands (ev):

    -7.1487  -2.4942   1.3605   2.7545   8.4920   9.3962  10.9035  12.1385

          k = 0.1250 0.3750 0.8750 (   215 PWs)   bands (ev):

    -5.8404  -4.0156   0.8184   1.7632   8.2373  10.2652  11.0941  13.2608

          k = 0.1250 0.6250 0.6250 (   217 PWs)   bands (ev):

    -6.4247  -3.4702   0.8174   2.7315   7.5912  11.2430  11.5738  12.9597

          k = 0.3750 0.3750 0.3750 (   217 PWs)   bands (ev):

    -7.7471  -2.1014   3.5489   3.5489   6.4090   9.6121   9.6121  13.6878

          k = 0.3750 0.3750 0.6250 (   219 PWs)   bands (ev):

    -6.9589  -3.2008   2.2492   3.0354   7.4358   9.5241  10.3343  13.3560

     highest occupied, lowest unoccupied level (ev):     4.4658    6.4090

!    total energy              =     -16.03625062 Ry
     Harris-Foulkes estimate   =     -16.03624935 Ry
     estimated scf accuracy    <       0.00000004 Ry

     convergence has been achieved in   1 iterations

!!   total energy              =     -16.03625066 Ry
     Harris-Foulkes estimate   =     -16.03624939 Ry
     est. exchange err (dexx)  =       0.00000004 Ry
     - averaged Fock potential =       1.69093599 Ry
     + Fock energy             =      -0.84549659 Ry

     EXX self-consistency reached


     Computing stress (Cartesian axis) and pressure

          total   stress  (Ry/bohr**3)                   (kbar)     P=  -66.97
  -0.00045526   0.00000000   0.00000000        -66.97      0.00      0.00
   0.00000000  -0.00045526   0.00000000          0.00    -66.97      0.00
   0.00000000   0.00000000  -0.00045526          0.00      0.00    -66.97


     Writing output data file pwscf.save

     init_run     :      0.06s CPU      0.06s WALL (       1 calls)
     electrons    :     24.51s CPU     24.89s WALL (       4 calls)
     stress       :      0.62s CPU      0.61s WALL (       1 calls)

     Called by init_run:
     wfcinit      :      0.02s CPU      0.02s WALL (       1 calls)
     potinit      :      0.00s CPU      0.01s WALL (       1 calls)

     Called by electrons:
     c_bands      :     24.32s CPU     24.70s WALL (      12 calls)
     sum_band     :      0.10s CPU      0.11s WALL (      12 calls)
     v_of_rho     :      0.08s CPU      0.09s WALL (      12 calls)
     mix_rho      :      0.00s CPU      0.00s WALL (      12 calls)

     Called by c_bands:
     init_us_2    :      0.03s CPU      0.02s WALL (     260 calls)
     cegterg      :     24.30s CPU     24.68s WALL (     120 calls)

     Called by sum_band:

     Called by *egterg:
     h_psi        :     24.22s CPU     24.57s WALL (     378 calls)
     g_psi        :      0.00s CPU      0.01s WALL (     248 calls)
     cdiaghg      :      0.04s CPU      0.07s WALL (     318 calls)

     Called by h_psi:
     h_psi:pot    :      0.42s CPU      0.47s WALL (     378 calls)
     h_psi:calbec :      0.02s CPU      0.01s WALL (     378 calls)
     vloc_psi     :      0.40s CPU      0.46s WALL (     378 calls)
     add_vuspsi   :      0.00s CPU      0.01s WALL (     378 calls)

     General routines
     calbec       :      0.02s CPU      0.01s WALL (     388 calls)
     fft          :      0.02s CPU      0.01s WALL (     135 calls)
     fftw         :      0.41s CPU      0.48s WALL (    5894 calls)
     fftc         :     19.99s CPU     20.47s WALL (  221056 calls)
     fftcw        :      0.48s CPU      0.41s WALL (    5014 calls)
     davcio       :      0.00s CPU      0.00s WALL (      10 calls)

     Parallel routines
     fft_scatter  :      1.82s CPU      1.87s WALL (  232099 calls)

     EXX routines
     exx_grid     :      0.00s CPU      0.00s WALL (       1 calls)
     exxinit      :      0.25s CPU      0.38s WALL (       4 calls)
     vexx         :     23.80s CPU     24.10s WALL (     210 calls)
     exxenergy    :      4.30s CPU      4.38s WALL (       7 calls)

     PWSCF        :    29.88s CPU        30.61s WALL


   This run was terminated on:  17:17:34  12Apr2017            

=------------------------------------------------------------------------------=
   JOB DONE.
=------------------------------------------------------------------------------=
