
     Program PWSCF v.5.2.0 starts on 30Oct2015 at  5:18:20 

     This program is part of the open-source Quantum ESPRESSO suite
     for quantum simulation of materials; please cite
         "P. Giannozzi et al., J. Phys.:Condens. Matter 21 395502 (2009);
          URL http://www.quantum-espresso.org", 
     in publications or presentations arising from this work. More details at
     http://www.quantum-espresso.org/quote

     Parallel version (MPI), running on     1 processors
     Waiting for input...
     Reading input from standard input

     Current dimensions of program PWSCF are:
     Max number of different atomic species (ntypx) = 10
     Max number of k-points (npk) =  40000
     Max angular momentum in pseudopotentials (lmaxx) =  3
               file N.pbe-kjpaw.UPF: wavefunction(s)  2P renormalized

     gamma-point specific algorithms are used

     Subspace diagonalization in iterative solution of the eigenvalue problem:
     a serial algorithm will be used

 
     G-vector sticks info
     --------------------
     sticks:   dense  smooth     PW     G-vecs:    dense   smooth      PW
     Sum        6625    6625   1653               407597   407597   50883
     Tot        3313    3313    827
 


     bravais-lattice index     =            1
     lattice parameter (alat)  =      28.3459  a.u.
     unit-cell volume          =   22775.6292 (a.u.)^3
     number of atoms/cell      =            2
     number of atomic types    =            1
     number of electrons       =        10.00
     number of Kohn-Sham states=            8
     kinetic-energy cutoff     =      26.0000  Ry
     charge density cutoff     =     104.0000  Ry
     convergence threshold     =      1.0E-06
     mixing beta               =       0.5000
     number of iterations used =            8  plain     mixing
     Exchange-correlation      =  SLA  PW   PBX  PBC ( 1  4  3  4 0 0)

     celldm(1)=  28.345892  celldm(2)=   0.000000  celldm(3)=   0.000000
     celldm(4)=   0.000000  celldm(5)=   0.000000  celldm(6)=   0.000000

     crystal axes: (cart. coord. in units of alat)
               a(1) = (   1.000000   0.000000   0.000000 )  
               a(2) = (   0.000000   1.000000   0.000000 )  
               a(3) = (   0.000000   0.000000   1.000000 )  

     reciprocal axes: (cart. coord. in units 2 pi/alat)
               b(1) = (  1.000000  0.000000  0.000000 )  
               b(2) = (  0.000000  1.000000  0.000000 )  
               b(3) = (  0.000000  0.000000  1.000000 )  


     PseudoPot. # 1 for  N read from file:
     ./pseudo/N.pbe-kjpaw.UPF
     MD5 check sum: 784def1e20c8513c628b118ec611e520
     Pseudo is Projector augmented-wave + core cor, Zval =  5.0
     Generated using "atomic" code by A. Dal Corso  (Quantum ESPRESSO distribution)
     Shape of augmentation charge: BESSEL
     Using radial grid of 1085 points,  4 beta functions with: 
                l(1) =   0
                l(2) =   0
                l(3) =   1
                l(4) =   1
     Q(r) pseudized with 0 coefficients 


     atomic species   valence    mass     pseudopotential
        N              5.00    14.00000      N( 1.00)

      8 Sym. Ops. (no inversion) found
          (note:  8 additional sym.ops. were found but ignored
           their fractional translations are incommensurate with FFT grid)


   Cartesian axes

     site n.     atom                  positions (alat units)
         1           N   tau(   1) = (   0.5000000   0.5000000   0.5000000  )
         2           N   tau(   2) = (   0.5000000   0.5000000   0.5666667  )

     number of k points=     1
                       cart. coord. in units 2pi/alat
        k(    1) = (   0.0000000   0.0000000   0.0000000), wk =   2.0000000

     Dense  grid:   203799 G-vectors     FFT dimensions: (  96,  96,  96)

     Largest allocated arrays     est. size (Mb)     dimensions
        Kohn-Sham Wavefunctions         3.11 Mb     (   25442,    8)
        NL pseudopotentials             6.21 Mb     (   25442,   16)
        Each V/rho on FFT grid         13.50 Mb     (  884736)
        Each G-vector array             1.55 Mb     (  203799)
        G-vector shells                 0.01 Mb     (    1766)
     Largest temporary arrays     est. size (Mb)     dimensions
        Auxiliary wavefunctions         6.21 Mb     (   25442,   32)
        Each subspace H/S matrix        0.01 Mb     (      32,   32)
        Each <psi_i|beta_j> matrix      0.00 Mb     (      16,    8)
        Arrays for rho mixing         108.00 Mb     (  884736,    8)

     Check: negative/imaginary core charge=   -0.000005    0.000000

     Initial potential from superposition of free atoms
     Check: negative starting charge=   -0.004667

     starting charge    9.99999, renormalised to   10.00000

     negative rho (up, down):  4.667E-03 0.000E+00
     Starting wfc are    8 randomized atomic wfcs
     Checking if some PAW data can be deallocated... 

     total cpu time spent up to now is        2.4 secs

     per-process dynamical memory:   137.7 Mb

     Self-consistent Calculation

     iteration #  1     ecut=    26.00 Ry     beta=0.50
     Davidson diagonalization with overlap
     ethr =  1.00E-02,  avg # of iterations =  7.0

     negative rho (up, down):  1.625E-02 0.000E+00

     total cpu time spent up to now is        5.0 secs

     total energy              =     -56.25779165 Ry
     Harris-Foulkes estimate   =     -56.39730508 Ry
     estimated scf accuracy    <       0.26540252 Ry

     iteration #  2     ecut=    26.00 Ry     beta=0.50
     Davidson diagonalization with overlap
     ethr =  2.65E-03,  avg # of iterations =  2.0

     negative rho (up, down):  2.313E-02 0.000E+00

     total cpu time spent up to now is        7.2 secs

     total energy              =     -56.28160171 Ry
     Harris-Foulkes estimate   =     -56.28907719 Ry
     estimated scf accuracy    <       0.01764629 Ry

     iteration #  3     ecut=    26.00 Ry     beta=0.50
     Davidson diagonalization with overlap
     ethr =  1.76E-04,  avg # of iterations = 12.0

     negative rho (up, down):  2.736E-02 0.000E+00

     total cpu time spent up to now is       10.0 secs

     total energy              =     -56.28223561 Ry
     Harris-Foulkes estimate   =     -56.28299120 Ry
     estimated scf accuracy    <       0.00180450 Ry

     iteration #  4     ecut=    26.00 Ry     beta=0.50
     Davidson diagonalization with overlap
     ethr =  1.80E-05,  avg # of iterations =  3.0

     negative rho (up, down):  2.782E-02 0.000E+00

     total cpu time spent up to now is       12.2 secs

     total energy              =     -56.28232705 Ry
     Harris-Foulkes estimate   =     -56.28232760 Ry
     estimated scf accuracy    <       0.00000597 Ry

     iteration #  5     ecut=    26.00 Ry     beta=0.50
     Davidson diagonalization with overlap
     ethr =  5.97E-08,  avg # of iterations =  5.0

     negative rho (up, down):  2.795E-02 0.000E+00

     total cpu time spent up to now is       14.6 secs

     total energy              =     -56.28233191 Ry
     Harris-Foulkes estimate   =     -56.28233225 Ry
     estimated scf accuracy    <       0.00000134 Ry

     iteration #  6     ecut=    26.00 Ry     beta=0.50
     Davidson diagonalization with overlap
     ethr =  1.34E-08,  avg # of iterations =  2.0

     negative rho (up, down):  2.801E-02 0.000E+00

     total cpu time spent up to now is       16.7 secs

     End of self-consistent calculation

          k = 0.0000 0.0000 0.0000 ( 25442 PWs)   bands (ev):

   -29.9234 -12.8259 -12.4745 -12.4745 -10.1608  -0.7759  -0.6665  -0.6665

     highest occupied, lowest unoccupied level (ev):   -10.1608   -0.7759

!    total energy              =     -56.28233194 Ry
     Harris-Foulkes estimate   =     -56.28233227 Ry
     estimated scf accuracy    <       0.00000046 Ry

     total all-electron energy =      -218.879935 Ry

     The total energy is the sum of the following terms:

     one-electron contribution =     -93.06040421 Ry
     hartree contribution      =      47.75694724 Ry
     xc contribution           =     -10.79741137 Ry
     ewald contribution        =      16.46583375 Ry
     one-center paw contrib.   =     -16.64729736 Ry

     convergence has been achieved in   6 iterations

     Writing output data file pwscf.save
 
     init_run     :      2.07s CPU      2.21s WALL (       1 calls)
     electrons    :     13.82s CPU     14.35s WALL (       1 calls)

     Called by init_run:
     wfcinit      :      0.24s CPU      0.24s WALL (       1 calls)
     potinit      :      0.90s CPU      0.97s WALL (       1 calls)

     Called by electrons:
     c_bands      :      4.92s CPU      4.95s WALL (       6 calls)
     sum_band     :      2.56s CPU      2.78s WALL (       6 calls)
     v_of_rho     :      4.83s CPU      4.92s WALL (       7 calls)
     newd         :      1.19s CPU      1.44s WALL (       7 calls)
     mix_rho      :      0.45s CPU      0.44s WALL (       6 calls)

     Called by c_bands:
     init_us_2    :      0.09s CPU      0.10s WALL (      13 calls)
     regterg      :      4.74s CPU      4.77s WALL (       6 calls)

     Called by sum_band:
     sum_band:bec :      0.00s CPU      0.00s WALL (       6 calls)
     addusdens    :      1.40s CPU      1.62s WALL (       6 calls)

     Called by *egterg:
     h_psi        :      4.42s CPU      4.44s WALL (      38 calls)
     s_psi        :      0.07s CPU      0.07s WALL (      38 calls)
     g_psi        :      0.06s CPU      0.06s WALL (      31 calls)
     rdiaghg      :      0.00s CPU      0.01s WALL (      37 calls)

     Called by h_psi:
     add_vuspsi   :      0.06s CPU      0.07s WALL (      38 calls)

     General routines
     calbec       :      0.09s CPU      0.09s WALL (      44 calls)
     fft          :      2.66s CPU      2.74s WALL (      90 calls)
     fftw         :      4.24s CPU      4.28s WALL (     198 calls)
     davcio       :      0.00s CPU      0.00s WALL (       1 calls)
 
     Parallel routines
     fft_scatter  :      1.01s CPU      1.04s WALL (     288 calls)

     PAW routines
     PAW_pot      :      0.68s CPU      0.69s WALL (       7 calls)
     PAW_symme    :      0.00s CPU      0.00s WALL (      13 calls)
 
     PWSCF        :    16.22s CPU        16.89s WALL

 
   This run was terminated on:   5:18:37  30Oct2015            

=------------------------------------------------------------------------------=
   JOB DONE.
=------------------------------------------------------------------------------=
