
     Program PWSCF v.5.2.0 starts on 30Oct2015 at  5:20:34 

     This program is part of the open-source Quantum ESPRESSO suite
     for quantum simulation of materials; please cite
         "P. Giannozzi et al., J. Phys.:Condens. Matter 21 395502 (2009);
          URL http://www.quantum-espresso.org", 
     in publications or presentations arising from this work. More details at
     http://www.quantum-espresso.org/quote

     Parallel version (MPI), running on     1 processors
     Waiting for input...
     Reading input from standard input

     Current dimensions of program PWSCF are:
     Max number of different atomic species (ntypx) = 10
     Max number of k-points (npk) =  40000
     Max angular momentum in pseudopotentials (lmaxx) =  3
               file N.pbe-kjpaw.UPF: wavefunction(s)  2P renormalized

     gamma-point specific algorithms are used

     Subspace diagonalization in iterative solution of the eigenvalue problem:
     a serial algorithm will be used

 
     G-vector sticks info
     --------------------
     sticks:   dense  smooth     PW     G-vecs:    dense   smooth      PW
     Sum        8693    8693   2177               609757   609757   76237
     Tot        4347    4347   1089
 


     bravais-lattice index     =            1
     lattice parameter (alat)  =      28.3459  a.u.
     unit-cell volume          =   22775.6292 (a.u.)^3
     number of atoms/cell      =            2
     number of atomic types    =            1
     number of electrons       =        10.00
     number of Kohn-Sham states=            8
     kinetic-energy cutoff     =      34.0000  Ry
     charge density cutoff     =     136.0000  Ry
     convergence threshold     =      1.0E-06
     mixing beta               =       0.5000
     number of iterations used =            8  plain     mixing
     Exchange-correlation      =  SLA  PW   PBX  PBC ( 1  4  3  4 0 0)

     celldm(1)=  28.345892  celldm(2)=   0.000000  celldm(3)=   0.000000
     celldm(4)=   0.000000  celldm(5)=   0.000000  celldm(6)=   0.000000

     crystal axes: (cart. coord. in units of alat)
               a(1) = (   1.000000   0.000000   0.000000 )  
               a(2) = (   0.000000   1.000000   0.000000 )  
               a(3) = (   0.000000   0.000000   1.000000 )  

     reciprocal axes: (cart. coord. in units 2 pi/alat)
               b(1) = (  1.000000  0.000000  0.000000 )  
               b(2) = (  0.000000  1.000000  0.000000 )  
               b(3) = (  0.000000  0.000000  1.000000 )  


     PseudoPot. # 1 for  N read from file:
     ./pseudo/N.pbe-kjpaw.UPF
     MD5 check sum: 784def1e20c8513c628b118ec611e520
     Pseudo is Projector augmented-wave + core cor, Zval =  5.0
     Generated using "atomic" code by A. Dal Corso  (Quantum ESPRESSO distribution)
     Shape of augmentation charge: BESSEL
     Using radial grid of 1085 points,  4 beta functions with: 
                l(1) =   0
                l(2) =   0
                l(3) =   1
                l(4) =   1
     Q(r) pseudized with 0 coefficients 


     atomic species   valence    mass     pseudopotential
        N              5.00    14.00000      N( 1.00)

      8 Sym. Ops. (no inversion) found
          (note:  8 additional sym.ops. were found but ignored
           their fractional translations are incommensurate with FFT grid)


   Cartesian axes

     site n.     atom                  positions (alat units)
         1           N   tau(   1) = (   0.5000000   0.5000000   0.5000000  )
         2           N   tau(   2) = (   0.5000000   0.5000000   0.5666667  )

     number of k points=     1
                       cart. coord. in units 2pi/alat
        k(    1) = (   0.0000000   0.0000000   0.0000000), wk =   2.0000000

     Dense  grid:   304879 G-vectors     FFT dimensions: ( 108, 108, 108)

     Largest allocated arrays     est. size (Mb)     dimensions
        Kohn-Sham Wavefunctions         4.65 Mb     (   38119,    8)
        NL pseudopotentials             9.31 Mb     (   38119,   16)
        Each V/rho on FFT grid         19.22 Mb     ( 1259712)
        Each G-vector array             2.33 Mb     (  304879)
        G-vector shells                 0.02 Mb     (    2309)
     Largest temporary arrays     est. size (Mb)     dimensions
        Auxiliary wavefunctions         9.31 Mb     (   38119,   32)
        Each subspace H/S matrix        0.01 Mb     (      32,   32)
        Each <psi_i|beta_j> matrix      0.00 Mb     (      16,    8)
        Arrays for rho mixing         153.77 Mb     ( 1259712,    8)

     Initial potential from superposition of free atoms
     Check: negative starting charge=   -0.002959

     starting charge    9.99999, renormalised to   10.00000

     negative rho (up, down):  2.959E-03 0.000E+00
     Starting wfc are    8 randomized atomic wfcs
     Checking if some PAW data can be deallocated... 

     total cpu time spent up to now is        2.9 secs

     per-process dynamical memory:   199.8 Mb

     Self-consistent Calculation

     iteration #  1     ecut=    34.00 Ry     beta=0.50
     Davidson diagonalization with overlap
     ethr =  1.00E-02,  avg # of iterations =  7.0

     negative rho (up, down):  1.318E-02 0.000E+00

     total cpu time spent up to now is        6.4 secs

     total energy              =     -56.32676676 Ry
     Harris-Foulkes estimate   =     -56.47685839 Ry
     estimated scf accuracy    <       0.28161929 Ry

     iteration #  2     ecut=    34.00 Ry     beta=0.50
     Davidson diagonalization with overlap
     ethr =  2.82E-03,  avg # of iterations =  2.0

     negative rho (up, down):  1.989E-02 0.000E+00

     total cpu time spent up to now is        9.3 secs

     total energy              =     -56.35742549 Ry
     Harris-Foulkes estimate   =     -56.36513274 Ry
     estimated scf accuracy    <       0.01773352 Ry

     iteration #  3     ecut=    34.00 Ry     beta=0.50
     Davidson diagonalization with overlap
     ethr =  1.77E-04,  avg # of iterations = 12.0

     negative rho (up, down):  2.404E-02 0.000E+00

     total cpu time spent up to now is       13.4 secs

     total energy              =     -56.35867857 Ry
     Harris-Foulkes estimate   =     -56.35941959 Ry
     estimated scf accuracy    <       0.00178950 Ry

     iteration #  4     ecut=    34.00 Ry     beta=0.50
     Davidson diagonalization with overlap
     ethr =  1.79E-05,  avg # of iterations =  3.0

     negative rho (up, down):  2.458E-02 0.000E+00

     total cpu time spent up to now is       16.6 secs

     total energy              =     -56.35881095 Ry
     Harris-Foulkes estimate   =     -56.35881973 Ry
     estimated scf accuracy    <       0.00002095 Ry

     iteration #  5     ecut=    34.00 Ry     beta=0.50
     Davidson diagonalization with overlap
     ethr =  2.09E-07,  avg # of iterations =  5.0

     negative rho (up, down):  2.468E-02 0.000E+00

     total cpu time spent up to now is       20.3 secs

     total energy              =     -56.35882067 Ry
     Harris-Foulkes estimate   =     -56.35882137 Ry
     estimated scf accuracy    <       0.00000198 Ry

     iteration #  6     ecut=    34.00 Ry     beta=0.50
     Davidson diagonalization with overlap
     ethr =  1.98E-08,  avg # of iterations =  2.0

     negative rho (up, down):  2.482E-02 0.000E+00

     total cpu time spent up to now is       23.2 secs

     End of self-consistent calculation

          k = 0.0000 0.0000 0.0000 ( 38119 PWs)   bands (ev):

   -29.8296 -12.7402 -12.4894 -12.4892 -10.2222  -0.6857  -0.6856  -0.5216

     highest occupied, lowest unoccupied level (ev):   -10.2222   -0.6857

!    total energy              =     -56.35882091 Ry
     Harris-Foulkes estimate   =     -56.35882097 Ry
     estimated scf accuracy    <       0.00000031 Ry

     total all-electron energy =      -218.956424 Ry

     The total energy is the sum of the following terms:

     one-electron contribution =     -93.18884866 Ry
     hartree contribution      =      47.86008900 Ry
     xc contribution           =     -10.82024387 Ry
     ewald contribution        =      16.46583375 Ry
     one-center paw contrib.   =     -16.67565113 Ry

     convergence has been achieved in   6 iterations

     Writing output data file pwscf.save
 
     init_run     :      2.49s CPU      2.66s WALL (       1 calls)
     electrons    :     19.47s CPU     20.34s WALL (       1 calls)

     Called by init_run:
     wfcinit      :      0.34s CPU      0.35s WALL (       1 calls)
     potinit      :      0.98s CPU      1.03s WALL (       1 calls)

     Called by electrons:
     c_bands      :      7.64s CPU      7.69s WALL (       6 calls)
     sum_band     :      3.71s CPU      4.07s WALL (       6 calls)
     v_of_rho     :      5.90s CPU      6.07s WALL (       7 calls)
     newd         :      1.74s CPU      2.11s WALL (       7 calls)
     mix_rho      :      0.63s CPU      0.64s WALL (       6 calls)

     Called by c_bands:
     init_us_2    :      0.16s CPU      0.16s WALL (      13 calls)
     regterg      :      7.36s CPU      7.40s WALL (       6 calls)

     Called by sum_band:
     sum_band:bec :      0.00s CPU      0.00s WALL (       6 calls)
     addusdens    :      2.05s CPU      2.40s WALL (       6 calls)

     Called by *egterg:
     h_psi        :      6.81s CPU      6.83s WALL (      38 calls)
     s_psi        :      0.10s CPU      0.11s WALL (      38 calls)
     g_psi        :      0.09s CPU      0.09s WALL (      31 calls)
     rdiaghg      :      0.02s CPU      0.01s WALL (      37 calls)

     Called by h_psi:
     add_vuspsi   :      0.10s CPU      0.10s WALL (      38 calls)

     General routines
     calbec       :      0.14s CPU      0.14s WALL (      44 calls)
     fft          :      3.84s CPU      3.94s WALL (      90 calls)
     fftw         :      6.50s CPU      6.52s WALL (     208 calls)
     davcio       :      0.00s CPU      0.00s WALL (       1 calls)
 
     Parallel routines
     fft_scatter  :      1.17s CPU      1.21s WALL (     298 calls)

     PAW routines
     PAW_pot      :      0.69s CPU      0.69s WALL (       7 calls)
     PAW_symme    :      0.00s CPU      0.00s WALL (      13 calls)
 
     PWSCF        :    22.28s CPU        23.37s WALL

 
   This run was terminated on:   5:20:57  30Oct2015            

=------------------------------------------------------------------------------=
   JOB DONE.
=------------------------------------------------------------------------------=
