
     Program PWSCF v.5.2.0 starts on 30Oct2015 at  5:29:10 

     This program is part of the open-source Quantum ESPRESSO suite
     for quantum simulation of materials; please cite
         "P. Giannozzi et al., J. Phys.:Condens. Matter 21 395502 (2009);
          URL http://www.quantum-espresso.org", 
     in publications or presentations arising from this work. More details at
     http://www.quantum-espresso.org/quote

     Parallel version (MPI), running on     1 processors
     Waiting for input...
     Reading input from standard input

     Current dimensions of program PWSCF are:
     Max number of different atomic species (ntypx) = 10
     Max number of k-points (npk) =  40000
     Max angular momentum in pseudopotentials (lmaxx) =  3
               file N.pbe-kjpaw.UPF: wavefunction(s)  2P renormalized

     gamma-point specific algorithms are used

     Subspace diagonalization in iterative solution of the eigenvalue problem:
     a serial algorithm will be used

 
     G-vector sticks info
     --------------------
     sticks:   dense  smooth     PW     G-vecs:    dense   smooth      PW
     Sum        9225    9225   2305               664437   664437   82951
     Tot        4613    4613   1153
 


     bravais-lattice index     =            1
     lattice parameter (alat)  =      28.3459  a.u.
     unit-cell volume          =   22775.6292 (a.u.)^3
     number of atoms/cell      =            2
     number of atomic types    =            1
     number of electrons       =        10.00
     number of Kohn-Sham states=            8
     kinetic-energy cutoff     =      36.0000  Ry
     charge density cutoff     =     144.0000  Ry
     convergence threshold     =      1.0E-06
     mixing beta               =       0.5000
     number of iterations used =            8  plain     mixing
     Exchange-correlation      =  SLA  PW   PBX  PBC ( 1  4  3  4 0 0)

     celldm(1)=  28.345892  celldm(2)=   0.000000  celldm(3)=   0.000000
     celldm(4)=   0.000000  celldm(5)=   0.000000  celldm(6)=   0.000000

     crystal axes: (cart. coord. in units of alat)
               a(1) = (   1.000000   0.000000   0.000000 )  
               a(2) = (   0.000000   1.000000   0.000000 )  
               a(3) = (   0.000000   0.000000   1.000000 )  

     reciprocal axes: (cart. coord. in units 2 pi/alat)
               b(1) = (  1.000000  0.000000  0.000000 )  
               b(2) = (  0.000000  1.000000  0.000000 )  
               b(3) = (  0.000000  0.000000  1.000000 )  


     PseudoPot. # 1 for  N read from file:
     ./pseudo/N.pbe-kjpaw.UPF
     MD5 check sum: 784def1e20c8513c628b118ec611e520
     Pseudo is Projector augmented-wave + core cor, Zval =  5.0
     Generated using "atomic" code by A. Dal Corso  (Quantum ESPRESSO distribution)
     Shape of augmentation charge: BESSEL
     Using radial grid of 1085 points,  4 beta functions with: 
                l(1) =   0
                l(2) =   0
                l(3) =   1
                l(4) =   1
     Q(r) pseudized with 0 coefficients 


     atomic species   valence    mass     pseudopotential
        N              5.00    14.00000      N( 1.00)

     16 Sym. Ops., with inversion, found ( 8 have fractional translation)



   Cartesian axes

     site n.     atom                  positions (alat units)
         1           N   tau(   1) = (   0.5000000   0.5000000   0.5000000  )
         2           N   tau(   2) = (   0.5000000   0.5000000   0.5666667  )

     number of k points=     1
                       cart. coord. in units 2pi/alat
        k(    1) = (   0.0000000   0.0000000   0.0000000), wk =   2.0000000

     Dense  grid:   332219 G-vectors     FFT dimensions: ( 120, 120, 120)

     Largest allocated arrays     est. size (Mb)     dimensions
        Kohn-Sham Wavefunctions         5.06 Mb     (   41476,    8)
        NL pseudopotentials            10.13 Mb     (   41476,   16)
        Each V/rho on FFT grid         26.37 Mb     ( 1728000)
        Each G-vector array             2.53 Mb     (  332219)
        G-vector shells                 0.02 Mb     (    2445)
     Largest temporary arrays     est. size (Mb)     dimensions
        Auxiliary wavefunctions        10.13 Mb     (   41476,   32)
        Each subspace H/S matrix        0.01 Mb     (      32,   32)
        Each <psi_i|beta_j> matrix      0.00 Mb     (      16,    8)
        Arrays for rho mixing         210.94 Mb     ( 1728000,    8)

     Initial potential from superposition of free atoms
     Check: negative starting charge=   -0.003678

     starting charge    9.99999, renormalised to   10.00000

     negative rho (up, down):  3.678E-03 0.000E+00
     Starting wfc are    8 randomized atomic wfcs
     Checking if some PAW data can be deallocated... 

     total cpu time spent up to now is        3.6 secs

     per-process dynamical memory:   195.9 Mb

     Self-consistent Calculation

     iteration #  1     ecut=    36.00 Ry     beta=0.50
     Davidson diagonalization with overlap
     ethr =  1.00E-02,  avg # of iterations =  7.0

     negative rho (up, down):  1.403E-02 0.000E+00

     total cpu time spent up to now is        8.1 secs

     total energy              =     -56.32963335 Ry
     Harris-Foulkes estimate   =     -56.48033479 Ry
     estimated scf accuracy    <       0.28277452 Ry

     iteration #  2     ecut=    36.00 Ry     beta=0.50
     Davidson diagonalization with overlap
     ethr =  2.83E-03,  avg # of iterations =  2.0

     negative rho (up, down):  2.056E-02 0.000E+00

     total cpu time spent up to now is       12.0 secs

     total energy              =     -56.35995194 Ry
     Harris-Foulkes estimate   =     -56.36771549 Ry
     estimated scf accuracy    <       0.01777995 Ry

     iteration #  3     ecut=    36.00 Ry     beta=0.50
     Davidson diagonalization with overlap
     ethr =  1.78E-04,  avg # of iterations = 11.0

     negative rho (up, down):  2.458E-02 0.000E+00

     total cpu time spent up to now is       17.1 secs

     total energy              =     -56.36134763 Ry
     Harris-Foulkes estimate   =     -56.36208576 Ry
     estimated scf accuracy    <       0.00178675 Ry

     iteration #  4     ecut=    36.00 Ry     beta=0.50
     Davidson diagonalization with overlap
     ethr =  1.79E-05,  avg # of iterations =  4.0

     negative rho (up, down):  2.512E-02 0.000E+00

     total cpu time spent up to now is       21.4 secs

     total energy              =     -56.36149327 Ry
     Harris-Foulkes estimate   =     -56.36150054 Ry
     estimated scf accuracy    <       0.00001925 Ry

     iteration #  5     ecut=    36.00 Ry     beta=0.50
     Davidson diagonalization with overlap
     ethr =  1.93E-07,  avg # of iterations =  4.0

     negative rho (up, down):  2.524E-02 0.000E+00

     total cpu time spent up to now is       26.1 secs

     total energy              =     -56.36150456 Ry
     Harris-Foulkes estimate   =     -56.36150541 Ry
     estimated scf accuracy    <       0.00000215 Ry

     iteration #  6     ecut=    36.00 Ry     beta=0.50
     Davidson diagonalization with overlap
     ethr =  2.15E-08,  avg # of iterations =  2.0

     negative rho (up, down):  2.536E-02 0.000E+00

     total cpu time spent up to now is       29.8 secs

     End of self-consistent calculation

          k = 0.0000 0.0000 0.0000 ( 41476 PWs)   bands (ev):

   -29.8207 -12.7355 -12.4865 -12.4864 -10.2232  -0.6851  -0.6850  -0.5205

     highest occupied, lowest unoccupied level (ev):   -10.2232   -0.6851

!    total energy              =     -56.36150492 Ry
     Harris-Foulkes estimate   =     -56.36150500 Ry
     estimated scf accuracy    <       0.00000028 Ry

     total all-electron energy =      -218.959108 Ry

     The total energy is the sum of the following terms:

     one-electron contribution =     -93.19190361 Ry
     hartree contribution      =      47.86327627 Ry
     xc contribution           =     -10.82108919 Ry
     ewald contribution        =      16.46583375 Ry
     one-center paw contrib.   =     -16.67762214 Ry

     convergence has been achieved in   6 iterations

     Writing output data file pwscf.save
 
     init_run     :      3.04s CPU      3.33s WALL (       1 calls)
     electrons    :     24.66s CPU     26.39s WALL (       1 calls)

     Called by init_run:
     wfcinit      :      0.45s CPU      0.47s WALL (       1 calls)
     potinit      :      1.34s CPU      1.45s WALL (       1 calls)

     Called by electrons:
     c_bands      :      9.88s CPU     10.23s WALL (       6 calls)
     sum_band     :      4.50s CPU      4.93s WALL (       6 calls)
     v_of_rho     :      8.06s CPU      8.60s WALL (       7 calls)
     newd         :      1.88s CPU      2.41s WALL (       7 calls)
     mix_rho      :      0.76s CPU      0.77s WALL (       6 calls)

     Called by c_bands:
     init_us_2    :      0.17s CPU      0.18s WALL (      13 calls)
     regterg      :      9.58s CPU      9.92s WALL (       6 calls)

     Called by sum_band:
     sum_band:bec :      0.00s CPU      0.00s WALL (       6 calls)
     addusdens    :      2.30s CPU      2.72s WALL (       6 calls)

     Called by *egterg:
     h_psi        :      9.05s CPU      9.40s WALL (      37 calls)
     s_psi        :      0.10s CPU      0.12s WALL (      37 calls)
     g_psi        :      0.11s CPU      0.10s WALL (      30 calls)
     rdiaghg      :      0.01s CPU      0.01s WALL (      36 calls)

     Called by h_psi:
     add_vuspsi   :      0.12s CPU      0.11s WALL (      37 calls)

     General routines
     calbec       :      0.14s CPU      0.15s WALL (      43 calls)
     fft          :      5.12s CPU      5.44s WALL (      90 calls)
     fftw         :      8.77s CPU      9.09s WALL (     206 calls)
     davcio       :      0.00s CPU      0.00s WALL (       1 calls)
 
     Parallel routines
     fft_scatter  :      1.51s CPU      1.71s WALL (     296 calls)

     PAW routines
     PAW_pot      :      0.69s CPU      0.69s WALL (       7 calls)
     PAW_symme    :      0.00s CPU      0.00s WALL (      13 calls)
 
     PWSCF        :    28.07s CPU        30.11s WALL

 
   This run was terminated on:   5:29:40  30Oct2015            

=------------------------------------------------------------------------------=
   JOB DONE.
=------------------------------------------------------------------------------=
