
     Program PWSCF v.5.2.0 starts on 30Oct2015 at  4:38:32 

     This program is part of the open-source Quantum ESPRESSO suite
     for quantum simulation of materials; please cite
         "P. Giannozzi et al., J. Phys.:Condens. Matter 21 395502 (2009);
          URL http://www.quantum-espresso.org", 
     in publications or presentations arising from this work. More details at
     http://www.quantum-espresso.org/quote

     Parallel version (MPI), running on     1 processors
     Waiting for input...
     Reading input from standard input

     Current dimensions of program PWSCF are:
     Max number of different atomic species (ntypx) = 10
     Max number of k-points (npk) =  40000
     Max angular momentum in pseudopotentials (lmaxx) =  3
               file N.pbe-kjpaw.UPF: wavefunction(s)  2P renormalized

     gamma-point specific algorithms are used

     Subspace diagonalization in iterative solution of the eigenvalue problem:
     a serial algorithm will be used

 
     G-vector sticks info
     --------------------
     sticks:   dense  smooth     PW     G-vecs:    dense   smooth      PW
     Sum        5129    5129   1281               274961   274961   34457
     Tot        2565    2565    641
 


     bravais-lattice index     =            1
     lattice parameter (alat)  =      28.3459  a.u.
     unit-cell volume          =   22775.6292 (a.u.)^3
     number of atoms/cell      =            2
     number of atomic types    =            1
     number of electrons       =        10.00
     number of Kohn-Sham states=            8
     kinetic-energy cutoff     =      20.0000  Ry
     charge density cutoff     =      80.0000  Ry
     convergence threshold     =      1.0E-06
     mixing beta               =       0.5000
     number of iterations used =            8  plain     mixing
     Exchange-correlation      =  SLA  PW   PBX  PBC ( 1  4  3  4 0 0)

     celldm(1)=  28.345892  celldm(2)=   0.000000  celldm(3)=   0.000000
     celldm(4)=   0.000000  celldm(5)=   0.000000  celldm(6)=   0.000000

     crystal axes: (cart. coord. in units of alat)
               a(1) = (   1.000000   0.000000   0.000000 )  
               a(2) = (   0.000000   1.000000   0.000000 )  
               a(3) = (   0.000000   0.000000   1.000000 )  

     reciprocal axes: (cart. coord. in units 2 pi/alat)
               b(1) = (  1.000000  0.000000  0.000000 )  
               b(2) = (  0.000000  1.000000  0.000000 )  
               b(3) = (  0.000000  0.000000  1.000000 )  


     PseudoPot. # 1 for  N read from file:
     ./pseudo/N.pbe-kjpaw.UPF
     MD5 check sum: 784def1e20c8513c628b118ec611e520
     Pseudo is Projector augmented-wave + core cor, Zval =  5.0
     Generated using "atomic" code by A. Dal Corso  (Quantum ESPRESSO distribution)
     Shape of augmentation charge: BESSEL
     Using radial grid of 1085 points,  4 beta functions with: 
                l(1) =   0
                l(2) =   0
                l(3) =   1
                l(4) =   1
     Q(r) pseudized with 0 coefficients 


     atomic species   valence    mass     pseudopotential
        N              5.00    14.00000      N( 1.00)

      8 Sym. Ops. (no inversion) found
          (note:  8 additional sym.ops. were found but ignored
           their fractional translations are incommensurate with FFT grid)


   Cartesian axes

     site n.     atom                  positions (alat units)
         1           N   tau(   1) = (   0.5000000   0.5000000   0.5000000  )
         2           N   tau(   2) = (   0.5000000   0.5000000   0.5666667  )

     number of k points=     1
                       cart. coord. in units 2pi/alat
        k(    1) = (   0.0000000   0.0000000   0.0000000), wk =   2.0000000

     Dense  grid:   137481 G-vectors     FFT dimensions: (  81,  81,  81)

     Largest allocated arrays     est. size (Mb)     dimensions
        Kohn-Sham Wavefunctions         2.10 Mb     (   17229,    8)
        NL pseudopotentials             4.21 Mb     (   17229,   16)
        Each V/rho on FFT grid          8.11 Mb     (  531441)
        Each G-vector array             1.05 Mb     (  137481)
        G-vector shells                 0.01 Mb     (    1360)
     Largest temporary arrays     est. size (Mb)     dimensions
        Auxiliary wavefunctions         4.21 Mb     (   17229,   32)
        Each subspace H/S matrix        0.01 Mb     (      32,   32)
        Each <psi_i|beta_j> matrix      0.00 Mb     (      16,    8)
        Arrays for rho mixing          64.87 Mb     (  531441,    8)

     Check: negative/imaginary core charge=   -0.000017    0.000000

     Initial potential from superposition of free atoms
     Check: negative starting charge=   -0.030976

     starting charge    9.99999, renormalised to   10.00000

     negative rho (up, down):  3.098E-02 0.000E+00
     Starting wfc are    8 randomized atomic wfcs
     Checking if some PAW data can be deallocated... 

     total cpu time spent up to now is        2.8 secs

     per-process dynamical memory:    79.1 Mb

     Self-consistent Calculation

     iteration #  1     ecut=    20.00 Ry     beta=0.50
     Davidson diagonalization with overlap
     ethr =  1.00E-02,  avg # of iterations =  7.0

     negative rho (up, down):  3.863E-02 0.000E+00

     total cpu time spent up to now is        4.5 secs

     total energy              =     -55.95223628 Ry
     Harris-Foulkes estimate   =     -56.04859023 Ry
     estimated scf accuracy    <       0.20875108 Ry

     iteration #  2     ecut=    20.00 Ry     beta=0.50
     Davidson diagonalization with overlap
     ethr =  2.09E-03,  avg # of iterations =  2.0

     negative rho (up, down):  6.194E-02 0.000E+00

     total cpu time spent up to now is        6.0 secs

     total energy              =     -55.96315008 Ry
     Harris-Foulkes estimate   =     -55.97147599 Ry
     estimated scf accuracy    <       0.02160040 Ry

     iteration #  3     ecut=    20.00 Ry     beta=0.50
     Davidson diagonalization with overlap
     ethr =  2.16E-04,  avg # of iterations = 11.0

     negative rho (up, down):  7.476E-02 0.000E+00

     total cpu time spent up to now is        7.8 secs

     total energy              =     -55.96328092 Ry
     Harris-Foulkes estimate   =     -55.96406318 Ry
     estimated scf accuracy    <       0.00201656 Ry

     iteration #  4     ecut=    20.00 Ry     beta=0.50
     Davidson diagonalization with overlap
     ethr =  2.02E-05,  avg # of iterations =  3.0

     negative rho (up, down):  7.569E-02 0.000E+00

     total cpu time spent up to now is        9.3 secs

     total energy              =     -55.96334521 Ry
     Harris-Foulkes estimate   =     -55.96334654 Ry
     estimated scf accuracy    <       0.00000654 Ry

     iteration #  5     ecut=    20.00 Ry     beta=0.50
     Davidson diagonalization with overlap
     WARNING:     2 eigenvalues not converged in regterg
     c_bands:  2 eigenvalues not converged
     ethr =  6.54E-08,  avg # of iterations = 20.0

     negative rho (up, down):  7.584E-02 0.000E+00

     total cpu time spent up to now is       11.5 secs

     total energy              =     -55.96334684 Ry
     Harris-Foulkes estimate   =     -55.96334771 Ry
     estimated scf accuracy    <       0.00000121 Ry

     iteration #  6     ecut=    20.00 Ry     beta=0.50
     Davidson diagonalization with overlap
     ethr =  1.21E-08,  avg # of iterations = 12.0

     negative rho (up, down):  7.584E-02 0.000E+00

     total cpu time spent up to now is       13.4 secs

     End of self-consistent calculation

          k = 0.0000 0.0000 0.0000 ( 17229 PWs)   bands (ev):

   -30.3467 -13.1841 -12.3264 -12.3264 -10.1068  -1.3016  -0.6911  -0.6058

     highest occupied, lowest unoccupied level (ev):   -10.1068   -1.3016

!    total energy              =     -55.96334682 Ry
     Harris-Foulkes estimate   =     -55.96334702 Ry
     estimated scf accuracy    <       0.00000010 Ry

     total all-electron energy =      -218.560950 Ry

     The total energy is the sum of the following terms:

     one-electron contribution =     -92.47312795 Ry
     hartree contribution      =      47.34841389 Ry
     xc contribution           =     -10.71746527 Ry
     ewald contribution        =      16.46583376 Ry
     one-center paw contrib.   =     -16.58700125 Ry

     convergence has been achieved in   6 iterations

     Writing output data file pwscf.save
 
     init_run     :      1.53s CPU      2.06s WALL (       1 calls)
     electrons    :     10.15s CPU     10.62s WALL (       1 calls)

     Called by init_run:
     wfcinit      :      0.17s CPU      0.27s WALL (       1 calls)
     potinit      :      0.61s CPU      0.77s WALL (       1 calls)

     Called by electrons:
     c_bands      :      4.20s CPU      4.22s WALL (       6 calls)
     sum_band     :      1.66s CPU      1.83s WALL (       6 calls)
     v_of_rho     :      3.13s CPU      3.20s WALL (       7 calls)
     newd         :      0.74s CPU      1.01s WALL (       7 calls)
     mix_rho      :      0.28s CPU      0.32s WALL (       6 calls)

     Called by c_bands:
     init_us_2    :      0.08s CPU      0.08s WALL (      13 calls)
     regterg      :      4.08s CPU      4.10s WALL (       6 calls)

     Called by sum_band:
     sum_band:bec :      0.00s CPU      0.00s WALL (       6 calls)
     addusdens    :      0.91s CPU      1.08s WALL (       6 calls)

     Called by *egterg:
     h_psi        :      3.72s CPU      3.76s WALL (      62 calls)
     s_psi        :      0.08s CPU      0.06s WALL (      62 calls)
     g_psi        :      0.06s CPU      0.05s WALL (      55 calls)
     rdiaghg      :      0.02s CPU      0.07s WALL (      61 calls)

     Called by h_psi:
     add_vuspsi   :      0.05s CPU      0.06s WALL (      62 calls)

     General routines
     calbec       :      0.09s CPU      0.10s WALL (      68 calls)
     fft          :      1.80s CPU      1.89s WALL (      90 calls)
     fftw         :      3.55s CPU      3.53s WALL (     248 calls)
     davcio       :      0.00s CPU      0.00s WALL (       1 calls)
 
     Parallel routines
     fft_scatter  :      0.70s CPU      0.67s WALL (     338 calls)

     PAW routines
     PAW_pot      :      0.68s CPU      0.79s WALL (       7 calls)
     PAW_symme    :      0.00s CPU      0.00s WALL (      13 calls)
 
     PWSCF        :    11.98s CPU        13.56s WALL

 
   This run was terminated on:   4:38:46  30Oct2015            

=------------------------------------------------------------------------------=
   JOB DONE.
=------------------------------------------------------------------------------=
