
     Program PWSCF v.5.2.0 starts on 30Oct2015 at  5:19:59 

     This program is part of the open-source Quantum ESPRESSO suite
     for quantum simulation of materials; please cite
         "P. Giannozzi et al., J. Phys.:Condens. Matter 21 395502 (2009);
          URL http://www.quantum-espresso.org", 
     in publications or presentations arising from this work. More details at
     http://www.quantum-espresso.org/quote

     Parallel version (MPI), running on     1 processors
     Waiting for input...
     Reading input from standard input

     Current dimensions of program PWSCF are:
     Max number of different atomic species (ntypx) = 10
     Max number of k-points (npk) =  40000
     Max angular momentum in pseudopotentials (lmaxx) =  3
               file N.pbe-kjpaw.UPF: wavefunction(s)  2P renormalized

     gamma-point specific algorithms are used

     Subspace diagonalization in iterative solution of the eigenvalue problem:
     a serial algorithm will be used

 
     G-vector sticks info
     --------------------
     sticks:   dense  smooth     PW     G-vecs:    dense   smooth      PW
     Sum        8197    8197   2053               556667   556667   69791
     Tot        4099    4099   1027
 


     bravais-lattice index     =            1
     lattice parameter (alat)  =      28.3459  a.u.
     unit-cell volume          =   22775.6292 (a.u.)^3
     number of atoms/cell      =            2
     number of atomic types    =            1
     number of electrons       =        10.00
     number of Kohn-Sham states=            8
     kinetic-energy cutoff     =      32.0000  Ry
     charge density cutoff     =     128.0000  Ry
     convergence threshold     =      1.0E-06
     mixing beta               =       0.5000
     number of iterations used =            8  plain     mixing
     Exchange-correlation      =  SLA  PW   PBX  PBC ( 1  4  3  4 0 0)

     celldm(1)=  28.345892  celldm(2)=   0.000000  celldm(3)=   0.000000
     celldm(4)=   0.000000  celldm(5)=   0.000000  celldm(6)=   0.000000

     crystal axes: (cart. coord. in units of alat)
               a(1) = (   1.000000   0.000000   0.000000 )  
               a(2) = (   0.000000   1.000000   0.000000 )  
               a(3) = (   0.000000   0.000000   1.000000 )  

     reciprocal axes: (cart. coord. in units 2 pi/alat)
               b(1) = (  1.000000  0.000000  0.000000 )  
               b(2) = (  0.000000  1.000000  0.000000 )  
               b(3) = (  0.000000  0.000000  1.000000 )  


     PseudoPot. # 1 for  N read from file:
     ./pseudo/N.pbe-kjpaw.UPF
     MD5 check sum: 784def1e20c8513c628b118ec611e520
     Pseudo is Projector augmented-wave + core cor, Zval =  5.0
     Generated using "atomic" code by A. Dal Corso  (Quantum ESPRESSO distribution)
     Shape of augmentation charge: BESSEL
     Using radial grid of 1085 points,  4 beta functions with: 
                l(1) =   0
                l(2) =   0
                l(3) =   1
                l(4) =   1
     Q(r) pseudized with 0 coefficients 


     atomic species   valence    mass     pseudopotential
        N              5.00    14.00000      N( 1.00)

      8 Sym. Ops. (no inversion) found
          (note:  8 additional sym.ops. were found but ignored
           their fractional translations are incommensurate with FFT grid)


   Cartesian axes

     site n.     atom                  positions (alat units)
         1           N   tau(   1) = (   0.5000000   0.5000000   0.5000000  )
         2           N   tau(   2) = (   0.5000000   0.5000000   0.5666667  )

     number of k points=     1
                       cart. coord. in units 2pi/alat
        k(    1) = (   0.0000000   0.0000000   0.0000000), wk =   2.0000000

     Dense  grid:   278334 G-vectors     FFT dimensions: ( 108, 108, 108)

     Largest allocated arrays     est. size (Mb)     dimensions
        Kohn-Sham Wavefunctions         4.26 Mb     (   34896,    8)
        NL pseudopotentials             8.52 Mb     (   34896,   16)
        Each V/rho on FFT grid         19.22 Mb     ( 1259712)
        Each G-vector array             2.12 Mb     (  278334)
        G-vector shells                 0.02 Mb     (    2174)
     Largest temporary arrays     est. size (Mb)     dimensions
        Auxiliary wavefunctions         8.52 Mb     (   34896,   32)
        Each subspace H/S matrix        0.01 Mb     (      32,   32)
        Each <psi_i|beta_j> matrix      0.00 Mb     (      16,    8)
        Arrays for rho mixing         153.77 Mb     ( 1259712,    8)

     Initial potential from superposition of free atoms
     Check: negative starting charge=   -0.001816

     starting charge    9.99999, renormalised to   10.00000

     negative rho (up, down):  1.816E-03 0.000E+00
     Starting wfc are    8 randomized atomic wfcs
     Checking if some PAW data can be deallocated... 

     total cpu time spent up to now is        2.8 secs

     per-process dynamical memory:   189.7 Mb

     Self-consistent Calculation

     iteration #  1     ecut=    32.00 Ry     beta=0.50
     Davidson diagonalization with overlap
     ethr =  1.00E-02,  avg # of iterations =  6.0

     negative rho (up, down):  9.918E-03 0.000E+00

     total cpu time spent up to now is        6.1 secs

     total energy              =     -56.31968362 Ry
     Harris-Foulkes estimate   =     -56.46782376 Ry
     estimated scf accuracy    <       0.27845885 Ry

     iteration #  2     ecut=    32.00 Ry     beta=0.50
     Davidson diagonalization with overlap
     ethr =  2.78E-03,  avg # of iterations =  2.0

     negative rho (up, down):  1.577E-02 0.000E+00

     total cpu time spent up to now is        8.9 secs

     total energy              =     -56.35221624 Ry
     Harris-Foulkes estimate   =     -56.36001880 Ry
     estimated scf accuracy    <       0.01793609 Ry

     iteration #  3     ecut=    32.00 Ry     beta=0.50
     Davidson diagonalization with overlap
     ethr =  1.79E-04,  avg # of iterations = 13.0

     negative rho (up, down):  1.939E-02 0.000E+00

     total cpu time spent up to now is       12.9 secs

     total energy              =     -56.35329453 Ry
     Harris-Foulkes estimate   =     -56.35402643 Ry
     estimated scf accuracy    <       0.00178246 Ry

     iteration #  4     ecut=    32.00 Ry     beta=0.50
     Davidson diagonalization with overlap
     ethr =  1.78E-05,  avg # of iterations =  4.0

     negative rho (up, down):  1.988E-02 0.000E+00

     total cpu time spent up to now is       16.0 secs

     total energy              =     -56.35340543 Ry
     Harris-Foulkes estimate   =     -56.35341117 Ry
     estimated scf accuracy    <       0.00001700 Ry

     iteration #  5     ecut=    32.00 Ry     beta=0.50
     Davidson diagonalization with overlap
     ethr =  1.70E-07,  avg # of iterations =  5.0

     negative rho (up, down):  1.995E-02 0.000E+00

     total cpu time spent up to now is       19.4 secs

     total energy              =     -56.35341135 Ry
     Harris-Foulkes estimate   =     -56.35341195 Ry
     estimated scf accuracy    <       0.00000184 Ry

     iteration #  6     ecut=    32.00 Ry     beta=0.50
     Davidson diagonalization with overlap
     ethr =  1.84E-08,  avg # of iterations =  2.0

     negative rho (up, down):  2.007E-02 0.000E+00

     total cpu time spent up to now is       22.1 secs

     End of self-consistent calculation

          k = 0.0000 0.0000 0.0000 ( 34896 PWs)   bands (ev):

   -29.8411 -12.7476 -12.4914 -12.4912 -10.2185  -0.6854  -0.6853  -0.5031

     highest occupied, lowest unoccupied level (ev):   -10.2185   -0.6854

!    total energy              =     -56.35341151 Ry
     Harris-Foulkes estimate   =     -56.35341160 Ry
     estimated scf accuracy    <       0.00000032 Ry

     total all-electron energy =      -218.951014 Ry

     The total energy is the sum of the following terms:

     one-electron contribution =     -93.18127185 Ry
     hartree contribution      =      47.85295940 Ry
     xc contribution           =     -10.81850952 Ry
     ewald contribution        =      16.46583375 Ry
     one-center paw contrib.   =     -16.67242330 Ry

     convergence has been achieved in   6 iterations

     Writing output data file pwscf.save
 
     init_run     :      2.36s CPU      2.57s WALL (       1 calls)
     electrons    :     18.63s CPU     19.42s WALL (       1 calls)

     Called by init_run:
     wfcinit      :      0.34s CPU      0.34s WALL (       1 calls)
     potinit      :      0.90s CPU      1.00s WALL (       1 calls)

     Called by electrons:
     c_bands      :      7.29s CPU      7.34s WALL (       6 calls)
     sum_band     :      3.52s CPU      3.86s WALL (       6 calls)
     v_of_rho     :      5.69s CPU      5.86s WALL (       7 calls)
     newd         :      1.56s CPU      1.94s WALL (       7 calls)
     mix_rho      :      0.60s CPU      0.60s WALL (       6 calls)

     Called by c_bands:
     init_us_2    :      0.15s CPU      0.14s WALL (      13 calls)
     regterg      :      7.03s CPU      7.08s WALL (       6 calls)

     Called by sum_band:
     sum_band:bec :      0.00s CPU      0.00s WALL (       6 calls)
     addusdens    :      1.89s CPU      2.22s WALL (       6 calls)

     Called by *egterg:
     h_psi        :      6.58s CPU      6.60s WALL (      39 calls)
     s_psi        :      0.10s CPU      0.10s WALL (      39 calls)
     g_psi        :      0.09s CPU      0.08s WALL (      32 calls)
     rdiaghg      :      0.01s CPU      0.01s WALL (      38 calls)

     Called by h_psi:
     add_vuspsi   :      0.08s CPU      0.09s WALL (      39 calls)

     General routines
     calbec       :      0.12s CPU      0.12s WALL (      45 calls)
     fft          :      3.73s CPU      3.86s WALL (      90 calls)
     fftw         :      6.31s CPU      6.35s WALL (     204 calls)
     davcio       :      0.00s CPU      0.00s WALL (       1 calls)
 
     Parallel routines
     fft_scatter  :      1.16s CPU      1.15s WALL (     294 calls)

     PAW routines
     PAW_pot      :      0.68s CPU      0.69s WALL (       7 calls)
     PAW_symme    :      0.00s CPU      0.00s WALL (      13 calls)
 
     PWSCF        :    21.32s CPU        22.35s WALL

 
   This run was terminated on:   5:20:22  30Oct2015            

=------------------------------------------------------------------------------=
   JOB DONE.
=------------------------------------------------------------------------------=
