
     Program PWSCF v.5.2.0 starts on 30Oct2015 at  5:17:11 

     This program is part of the open-source Quantum ESPRESSO suite
     for quantum simulation of materials; please cite
         "P. Giannozzi et al., J. Phys.:Condens. Matter 21 395502 (2009);
          URL http://www.quantum-espresso.org", 
     in publications or presentations arising from this work. More details at
     http://www.quantum-espresso.org/quote

     Parallel version (MPI), running on     1 processors
     Waiting for input...
     Reading input from standard input

     Current dimensions of program PWSCF are:
     Max number of different atomic species (ntypx) = 10
     Max number of k-points (npk) =  40000
     Max angular momentum in pseudopotentials (lmaxx) =  3
               file N.pbe-kjpaw.UPF: wavefunction(s)  2P renormalized

     gamma-point specific algorithms are used

     Subspace diagonalization in iterative solution of the eigenvalue problem:
     a serial algorithm will be used

 
     G-vector sticks info
     --------------------
     sticks:   dense  smooth     PW     G-vecs:    dense   smooth      PW
     Sum        5629    5629   1405               317713   317713   39607
     Tot        2815    2815    703
 


     bravais-lattice index     =            1
     lattice parameter (alat)  =      28.3459  a.u.
     unit-cell volume          =   22775.6292 (a.u.)^3
     number of atoms/cell      =            2
     number of atomic types    =            1
     number of electrons       =        10.00
     number of Kohn-Sham states=            8
     kinetic-energy cutoff     =      22.0000  Ry
     charge density cutoff     =      88.0000  Ry
     convergence threshold     =      1.0E-06
     mixing beta               =       0.5000
     number of iterations used =            8  plain     mixing
     Exchange-correlation      =  SLA  PW   PBX  PBC ( 1  4  3  4 0 0)

     celldm(1)=  28.345892  celldm(2)=   0.000000  celldm(3)=   0.000000
     celldm(4)=   0.000000  celldm(5)=   0.000000  celldm(6)=   0.000000

     crystal axes: (cart. coord. in units of alat)
               a(1) = (   1.000000   0.000000   0.000000 )  
               a(2) = (   0.000000   1.000000   0.000000 )  
               a(3) = (   0.000000   0.000000   1.000000 )  

     reciprocal axes: (cart. coord. in units 2 pi/alat)
               b(1) = (  1.000000  0.000000  0.000000 )  
               b(2) = (  0.000000  1.000000  0.000000 )  
               b(3) = (  0.000000  0.000000  1.000000 )  


     PseudoPot. # 1 for  N read from file:
     ./pseudo/N.pbe-kjpaw.UPF
     MD5 check sum: 784def1e20c8513c628b118ec611e520
     Pseudo is Projector augmented-wave + core cor, Zval =  5.0
     Generated using "atomic" code by A. Dal Corso  (Quantum ESPRESSO distribution)
     Shape of augmentation charge: BESSEL
     Using radial grid of 1085 points,  4 beta functions with: 
                l(1) =   0
                l(2) =   0
                l(3) =   1
                l(4) =   1
     Q(r) pseudized with 0 coefficients 


     atomic species   valence    mass     pseudopotential
        N              5.00    14.00000      N( 1.00)

     16 Sym. Ops., with inversion, found ( 8 have fractional translation)



   Cartesian axes

     site n.     atom                  positions (alat units)
         1           N   tau(   1) = (   0.5000000   0.5000000   0.5000000  )
         2           N   tau(   2) = (   0.5000000   0.5000000   0.5666667  )

     number of k points=     1
                       cart. coord. in units 2pi/alat
        k(    1) = (   0.0000000   0.0000000   0.0000000), wk =   2.0000000

     Dense  grid:   158857 G-vectors     FFT dimensions: (  90,  90,  90)

     Largest allocated arrays     est. size (Mb)     dimensions
        Kohn-Sham Wavefunctions         2.42 Mb     (   19804,    8)
        NL pseudopotentials             4.83 Mb     (   19804,   16)
        Each V/rho on FFT grid         11.12 Mb     (  729000)
        Each G-vector array             1.21 Mb     (  158857)
        G-vector shells                 0.01 Mb     (    1495)
     Largest temporary arrays     est. size (Mb)     dimensions
        Auxiliary wavefunctions         4.83 Mb     (   19804,   32)
        Each subspace H/S matrix        0.01 Mb     (      32,   32)
        Each <psi_i|beta_j> matrix      0.00 Mb     (      16,    8)
        Arrays for rho mixing          88.99 Mb     (  729000,    8)

     Check: negative/imaginary core charge=   -0.000012    0.000000

     Initial potential from superposition of free atoms
     Check: negative starting charge=   -0.016461

     starting charge    9.99999, renormalised to   10.00000

     negative rho (up, down):  1.646E-02 0.000E+00
     Starting wfc are    8 randomized atomic wfcs
     Checking if some PAW data can be deallocated... 

     total cpu time spent up to now is        2.2 secs

     per-process dynamical memory:   110.6 Mb

     Self-consistent Calculation

     iteration #  1     ecut=    22.00 Ry     beta=0.50
     Davidson diagonalization with overlap
     ethr =  1.00E-02,  avg # of iterations =  7.0

     negative rho (up, down):  3.008E-02 0.000E+00

     total cpu time spent up to now is        4.6 secs

     total energy              =     -56.09914993 Ry
     Harris-Foulkes estimate   =     -56.21402879 Ry
     estimated scf accuracy    <       0.23202512 Ry

     iteration #  2     ecut=    22.00 Ry     beta=0.50
     Davidson diagonalization with overlap
     ethr =  2.32E-03,  avg # of iterations =  2.0

     negative rho (up, down):  4.590E-02 0.000E+00

     total cpu time spent up to now is        6.6 secs

     total energy              =     -56.11565289 Ry
     Harris-Foulkes estimate   =     -56.12345870 Ry
     estimated scf accuracy    <       0.01953125 Ry

     iteration #  3     ecut=    22.00 Ry     beta=0.50
     Davidson diagonalization with overlap
     ethr =  1.95E-04,  avg # of iterations = 12.0

     negative rho (up, down):  5.543E-02 0.000E+00

     total cpu time spent up to now is        9.2 secs

     total energy              =     -56.11592500 Ry
     Harris-Foulkes estimate   =     -56.11670783 Ry
     estimated scf accuracy    <       0.00197050 Ry

     iteration #  4     ecut=    22.00 Ry     beta=0.50
     Davidson diagonalization with overlap
     ethr =  1.97E-05,  avg # of iterations =  3.0

     negative rho (up, down):  5.613E-02 0.000E+00

     total cpu time spent up to now is       11.2 secs

     total energy              =     -56.11600165 Ry
     Harris-Foulkes estimate   =     -56.11600190 Ry
     estimated scf accuracy    <       0.00000514 Ry

     iteration #  5     ecut=    22.00 Ry     beta=0.50
     Davidson diagonalization with overlap
     ethr =  5.14E-08,  avg # of iterations =  5.0

     negative rho (up, down):  5.622E-02 0.000E+00

     total cpu time spent up to now is       13.6 secs

     total energy              =     -56.11600523 Ry
     Harris-Foulkes estimate   =     -56.11600570 Ry
     estimated scf accuracy    <       0.00000177 Ry

     iteration #  6     ecut=    22.00 Ry     beta=0.50
     Davidson diagonalization with overlap
     ethr =  1.77E-08,  avg # of iterations =  1.0

     negative rho (up, down):  5.633E-02 0.000E+00

     total cpu time spent up to now is       15.4 secs

     End of self-consistent calculation

          k = 0.0000 0.0000 0.0000 ( 19804 PWs)   bands (ev):

   -30.1362 -13.0181 -12.4056 -12.4056 -10.1082  -1.1148  -0.6222  -0.6221

     highest occupied, lowest unoccupied level (ev):   -10.1082   -1.1148

!    total energy              =     -56.11600530 Ry
     Harris-Foulkes estimate   =     -56.11600544 Ry
     estimated scf accuracy    <       0.00000028 Ry

     total all-electron energy =      -218.713608 Ry

     The total energy is the sum of the following terms:

     one-electron contribution =     -92.76434528 Ry
     hartree contribution      =      47.54959853 Ry
     xc contribution           =     -10.75587584 Ry
     ewald contribution        =      16.46583376 Ry
     one-center paw contrib.   =     -16.61121646 Ry

     convergence has been achieved in   6 iterations

     Writing output data file pwscf.save
 
     init_run     :      1.90s CPU      2.00s WALL (       1 calls)
     electrons    :     12.76s CPU     13.20s WALL (       1 calls)

     Called by init_run:
     wfcinit      :      0.23s CPU      0.24s WALL (       1 calls)
     potinit      :      0.83s CPU      0.88s WALL (       1 calls)

     Called by electrons:
     c_bands      :      4.84s CPU      4.86s WALL (       6 calls)
     sum_band     :      2.23s CPU      2.43s WALL (       6 calls)
     v_of_rho     :      4.40s CPU      4.48s WALL (       7 calls)
     newd         :      0.96s CPU      1.16s WALL (       7 calls)
     mix_rho      :      0.38s CPU      0.37s WALL (       6 calls)

     Called by c_bands:
     init_us_2    :      0.07s CPU      0.08s WALL (      13 calls)
     regterg      :      4.71s CPU      4.72s WALL (       6 calls)

     Called by sum_band:
     sum_band:bec :      0.00s CPU      0.00s WALL (       6 calls)
     addusdens    :      1.10s CPU      1.30s WALL (       6 calls)

     Called by *egterg:
     h_psi        :      4.51s CPU      4.53s WALL (      37 calls)
     s_psi        :      0.07s CPU      0.05s WALL (      37 calls)
     g_psi        :      0.06s CPU      0.04s WALL (      30 calls)
     rdiaghg      :      0.01s CPU      0.01s WALL (      36 calls)

     Called by h_psi:
     add_vuspsi   :      0.02s CPU      0.05s WALL (      37 calls)

     General routines
     calbec       :      0.08s CPU      0.07s WALL (      43 calls)
     fft          :      2.71s CPU      2.75s WALL (      90 calls)
     fftw         :      4.54s CPU      4.53s WALL (     196 calls)
     davcio       :      0.00s CPU      0.00s WALL (       1 calls)
 
     Parallel routines
     fft_scatter  :      0.62s CPU      0.65s WALL (     286 calls)

     PAW routines
     PAW_pot      :      0.68s CPU      0.69s WALL (       7 calls)
     PAW_symme    :      0.00s CPU      0.00s WALL (      13 calls)
 
     PWSCF        :    14.95s CPU        15.52s WALL

 
   This run was terminated on:   5:17:27  30Oct2015            

=------------------------------------------------------------------------------=
   JOB DONE.
=------------------------------------------------------------------------------=
