
     Program PWSCF v.5.2.0 starts on 30Oct2015 at  5:18:56 

     This program is part of the open-source Quantum ESPRESSO suite
     for quantum simulation of materials; please cite
         "P. Giannozzi et al., J. Phys.:Condens. Matter 21 395502 (2009);
          URL http://www.quantum-espresso.org", 
     in publications or presentations arising from this work. More details at
     http://www.quantum-espresso.org/quote

     Parallel version (MPI), running on     1 processors
     Waiting for input...
     Reading input from standard input

     Current dimensions of program PWSCF are:
     Max number of different atomic species (ntypx) = 10
     Max number of k-points (npk) =  40000
     Max angular momentum in pseudopotentials (lmaxx) =  3
               file N.pbe-kjpaw.UPF: wavefunction(s)  2P renormalized

     gamma-point specific algorithms are used

     Subspace diagonalization in iterative solution of the eigenvalue problem:
     a serial algorithm will be used

 
     G-vector sticks info
     --------------------
     sticks:   dense  smooth     PW     G-vecs:    dense   smooth      PW
     Sum        7153    7153   1789               455863   455863   57051
     Tot        3577    3577    895
 


     bravais-lattice index     =            1
     lattice parameter (alat)  =      28.3459  a.u.
     unit-cell volume          =   22775.6292 (a.u.)^3
     number of atoms/cell      =            2
     number of atomic types    =            1
     number of electrons       =        10.00
     number of Kohn-Sham states=            8
     kinetic-energy cutoff     =      28.0000  Ry
     charge density cutoff     =     112.0000  Ry
     convergence threshold     =      1.0E-06
     mixing beta               =       0.5000
     number of iterations used =            8  plain     mixing
     Exchange-correlation      =  SLA  PW   PBX  PBC ( 1  4  3  4 0 0)

     celldm(1)=  28.345892  celldm(2)=   0.000000  celldm(3)=   0.000000
     celldm(4)=   0.000000  celldm(5)=   0.000000  celldm(6)=   0.000000

     crystal axes: (cart. coord. in units of alat)
               a(1) = (   1.000000   0.000000   0.000000 )  
               a(2) = (   0.000000   1.000000   0.000000 )  
               a(3) = (   0.000000   0.000000   1.000000 )  

     reciprocal axes: (cart. coord. in units 2 pi/alat)
               b(1) = (  1.000000  0.000000  0.000000 )  
               b(2) = (  0.000000  1.000000  0.000000 )  
               b(3) = (  0.000000  0.000000  1.000000 )  


     PseudoPot. # 1 for  N read from file:
     ./pseudo/N.pbe-kjpaw.UPF
     MD5 check sum: 784def1e20c8513c628b118ec611e520
     Pseudo is Projector augmented-wave + core cor, Zval =  5.0
     Generated using "atomic" code by A. Dal Corso  (Quantum ESPRESSO distribution)
     Shape of augmentation charge: BESSEL
     Using radial grid of 1085 points,  4 beta functions with: 
                l(1) =   0
                l(2) =   0
                l(3) =   1
                l(4) =   1
     Q(r) pseudized with 0 coefficients 


     atomic species   valence    mass     pseudopotential
        N              5.00    14.00000      N( 1.00)

      8 Sym. Ops. (no inversion) found
          (note:  8 additional sym.ops. were found but ignored
           their fractional translations are incommensurate with FFT grid)


   Cartesian axes

     site n.     atom                  positions (alat units)
         1           N   tau(   1) = (   0.5000000   0.5000000   0.5000000  )
         2           N   tau(   2) = (   0.5000000   0.5000000   0.5666667  )

     number of k points=     1
                       cart. coord. in units 2pi/alat
        k(    1) = (   0.0000000   0.0000000   0.0000000), wk =   2.0000000

     Dense  grid:   227932 G-vectors     FFT dimensions: (  96,  96,  96)

     Largest allocated arrays     est. size (Mb)     dimensions
        Kohn-Sham Wavefunctions         3.48 Mb     (   28526,    8)
        NL pseudopotentials             6.96 Mb     (   28526,   16)
        Each V/rho on FFT grid         13.50 Mb     (  884736)
        Each G-vector array             1.74 Mb     (  227932)
        G-vector shells                 0.01 Mb     (    1902)
     Largest temporary arrays     est. size (Mb)     dimensions
        Auxiliary wavefunctions         6.96 Mb     (   28526,   32)
        Each subspace H/S matrix        0.01 Mb     (      32,   32)
        Each <psi_i|beta_j> matrix      0.00 Mb     (      16,    8)
        Arrays for rho mixing         108.00 Mb     (  884736,    8)

     Check: negative/imaginary core charge=   -0.000003    0.000000

     Initial potential from superposition of free atoms
     Check: negative starting charge=   -0.001804

     starting charge    9.99999, renormalised to   10.00000

     negative rho (up, down):  1.804E-03 0.000E+00
     Starting wfc are    8 randomized atomic wfcs
     Checking if some PAW data can be deallocated... 

     total cpu time spent up to now is        2.5 secs

     per-process dynamical memory:   128.9 Mb

     Self-consistent Calculation

     iteration #  1     ecut=    28.00 Ry     beta=0.50
     Davidson diagonalization with overlap
     ethr =  1.00E-02,  avg # of iterations =  7.0

     negative rho (up, down):  7.513E-03 0.000E+00

     total cpu time spent up to now is        5.2 secs

     total energy              =     -56.29478324 Ry
     Harris-Foulkes estimate   =     -56.44035453 Ry
     estimated scf accuracy    <       0.27412092 Ry

     iteration #  2     ecut=    28.00 Ry     beta=0.50
     Davidson diagonalization with overlap
     ethr =  2.74E-03,  avg # of iterations =  2.0

     negative rho (up, down):  1.036E-02 0.000E+00

     total cpu time spent up to now is        7.4 secs

     total energy              =     -56.32027290 Ry
     Harris-Foulkes estimate   =     -56.32769986 Ry
     estimated scf accuracy    <       0.01745988 Ry

     iteration #  3     ecut=    28.00 Ry     beta=0.50
     Davidson diagonalization with overlap
     ethr =  1.75E-04,  avg # of iterations =  6.0

     negative rho (up, down):  1.209E-02 0.000E+00

     total cpu time spent up to now is        9.9 secs

     total energy              =     -56.32111670 Ry
     Harris-Foulkes estimate   =     -56.32189518 Ry
     estimated scf accuracy    <       0.00181173 Ry

     iteration #  4     ecut=    28.00 Ry     beta=0.50
     Davidson diagonalization with overlap
     ethr =  1.81E-05,  avg # of iterations = 10.0

     negative rho (up, down):  1.234E-02 0.000E+00

     total cpu time spent up to now is       12.7 secs

     total energy              =     -56.32123461 Ry
     Harris-Foulkes estimate   =     -56.32124070 Ry
     estimated scf accuracy    <       0.00001869 Ry

     iteration #  5     ecut=    28.00 Ry     beta=0.50
     Davidson diagonalization with overlap
     ethr =  1.87E-07,  avg # of iterations =  3.0

     negative rho (up, down):  1.239E-02 0.000E+00

     total cpu time spent up to now is       15.2 secs

     total energy              =     -56.32124162 Ry
     Harris-Foulkes estimate   =     -56.32124282 Ry
     estimated scf accuracy    <       0.00000290 Ry

     iteration #  6     ecut=    28.00 Ry     beta=0.50
     Davidson diagonalization with overlap
     ethr =  2.90E-08,  avg # of iterations =  2.0

     negative rho (up, down):  1.244E-02 0.000E+00

     total cpu time spent up to now is       17.3 secs

     End of self-consistent calculation

          k = 0.0000 0.0000 0.0000 ( 28526 PWs)   bands (ev):

   -29.8780 -12.7802 -12.4836 -12.4836 -10.1871  -0.6735  -0.6735  -0.6234

     highest occupied, lowest unoccupied level (ev):   -10.1871   -0.6735

!    total energy              =     -56.32124203 Ry
     Harris-Foulkes estimate   =     -56.32124234 Ry
     estimated scf accuracy    <       0.00000056 Ry

     total all-electron energy =      -218.918845 Ry

     The total energy is the sum of the following terms:

     one-electron contribution =     -93.12745911 Ry
     hartree contribution      =      47.80791499 Ry
     xc contribution           =     -10.80840691 Ry
     ewald contribution        =      16.46583375 Ry
     one-center paw contrib.   =     -16.65912476 Ry

     convergence has been achieved in   6 iterations

     Writing output data file pwscf.save
 
     init_run     :      2.14s CPU      2.27s WALL (       1 calls)
     electrons    :     14.24s CPU     14.86s WALL (       1 calls)

     Called by init_run:
     wfcinit      :      0.24s CPU      0.25s WALL (       1 calls)
     potinit      :      0.92s CPU      0.96s WALL (       1 calls)

     Called by electrons:
     c_bands      :      5.18s CPU      5.20s WALL (       6 calls)
     sum_band     :      2.71s CPU      2.98s WALL (       6 calls)
     v_of_rho     :      4.77s CPU      4.82s WALL (       7 calls)
     newd         :      1.25s CPU      1.57s WALL (       7 calls)
     mix_rho      :      0.47s CPU      0.48s WALL (       6 calls)

     Called by c_bands:
     init_us_2    :      0.12s CPU      0.12s WALL (      13 calls)
     regterg      :      4.97s CPU      4.99s WALL (       6 calls)

     Called by sum_band:
     sum_band:bec :      0.00s CPU      0.00s WALL (       6 calls)
     addusdens    :      1.50s CPU      1.79s WALL (       6 calls)

     Called by *egterg:
     h_psi        :      4.60s CPU      4.62s WALL (      37 calls)
     s_psi        :      0.07s CPU      0.08s WALL (      37 calls)
     g_psi        :      0.06s CPU      0.06s WALL (      30 calls)
     rdiaghg      :      0.01s CPU      0.01s WALL (      36 calls)

     Called by h_psi:
     add_vuspsi   :      0.06s CPU      0.07s WALL (      37 calls)

     General routines
     calbec       :      0.13s CPU      0.10s WALL (      43 calls)
     fft          :      2.81s CPU      2.82s WALL (      90 calls)
     fftw         :      4.40s CPU      4.41s WALL (     202 calls)
     davcio       :      0.00s CPU      0.00s WALL (       1 calls)
 
     Parallel routines
     fft_scatter  :      1.13s CPU      1.11s WALL (     292 calls)

     PAW routines
     PAW_pot      :      0.69s CPU      0.69s WALL (       7 calls)
     PAW_symme    :      0.00s CPU      0.00s WALL (      13 calls)
 
     PWSCF        :    16.69s CPU        17.46s WALL

 
   This run was terminated on:   5:19:13  30Oct2015            

=------------------------------------------------------------------------------=
   JOB DONE.
=------------------------------------------------------------------------------=
