
     Program PWSCF v.5.2.0 starts on 30Oct2015 at  5:30: 2 

     This program is part of the open-source Quantum ESPRESSO suite
     for quantum simulation of materials; please cite
         "P. Giannozzi et al., J. Phys.:Condens. Matter 21 395502 (2009);
          URL http://www.quantum-espresso.org", 
     in publications or presentations arising from this work. More details at
     http://www.quantum-espresso.org/quote

     Parallel version (MPI), running on     1 processors
     Waiting for input...
     Reading input from standard input

     Current dimensions of program PWSCF are:
     Max number of different atomic species (ntypx) = 10
     Max number of k-points (npk) =  40000
     Max angular momentum in pseudopotentials (lmaxx) =  3
               file N.pbe-kjpaw.UPF: wavefunction(s)  2P renormalized

     gamma-point specific algorithms are used

     Subspace diagonalization in iterative solution of the eigenvalue problem:
     a serial algorithm will be used

 
     G-vector sticks info
     --------------------
     sticks:   dense  smooth     PW     G-vecs:    dense   smooth      PW
     Sum        9729    9729   2433               721127   721127   90087
     Tot        4865    4865   1217
 


     bravais-lattice index     =            1
     lattice parameter (alat)  =      28.3459  a.u.
     unit-cell volume          =   22775.6292 (a.u.)^3
     number of atoms/cell      =            2
     number of atomic types    =            1
     number of electrons       =        10.00
     number of Kohn-Sham states=            8
     kinetic-energy cutoff     =      38.0000  Ry
     charge density cutoff     =     152.0000  Ry
     convergence threshold     =      1.0E-06
     mixing beta               =       0.5000
     number of iterations used =            8  plain     mixing
     Exchange-correlation      =  SLA  PW   PBX  PBC ( 1  4  3  4 0 0)

     celldm(1)=  28.345892  celldm(2)=   0.000000  celldm(3)=   0.000000
     celldm(4)=   0.000000  celldm(5)=   0.000000  celldm(6)=   0.000000

     crystal axes: (cart. coord. in units of alat)
               a(1) = (   1.000000   0.000000   0.000000 )  
               a(2) = (   0.000000   1.000000   0.000000 )  
               a(3) = (   0.000000   0.000000   1.000000 )  

     reciprocal axes: (cart. coord. in units 2 pi/alat)
               b(1) = (  1.000000  0.000000  0.000000 )  
               b(2) = (  0.000000  1.000000  0.000000 )  
               b(3) = (  0.000000  0.000000  1.000000 )  


     PseudoPot. # 1 for  N read from file:
     ./pseudo/N.pbe-kjpaw.UPF
     MD5 check sum: 784def1e20c8513c628b118ec611e520
     Pseudo is Projector augmented-wave + core cor, Zval =  5.0
     Generated using "atomic" code by A. Dal Corso  (Quantum ESPRESSO distribution)
     Shape of augmentation charge: BESSEL
     Using radial grid of 1085 points,  4 beta functions with: 
                l(1) =   0
                l(2) =   0
                l(3) =   1
                l(4) =   1
     Q(r) pseudized with 0 coefficients 


     atomic species   valence    mass     pseudopotential
        N              5.00    14.00000      N( 1.00)

     16 Sym. Ops., with inversion, found ( 8 have fractional translation)



   Cartesian axes

     site n.     atom                  positions (alat units)
         1           N   tau(   1) = (   0.5000000   0.5000000   0.5000000  )
         2           N   tau(   2) = (   0.5000000   0.5000000   0.5666667  )

     number of k points=     1
                       cart. coord. in units 2pi/alat
        k(    1) = (   0.0000000   0.0000000   0.0000000), wk =   2.0000000

     Dense  grid:   360564 G-vectors     FFT dimensions: ( 120, 120, 120)

     Largest allocated arrays     est. size (Mb)     dimensions
        Kohn-Sham Wavefunctions         5.50 Mb     (   45044,    8)
        NL pseudopotentials            11.00 Mb     (   45044,   16)
        Each V/rho on FFT grid         26.37 Mb     ( 1728000)
        Each G-vector array             2.75 Mb     (  360564)
        G-vector shells                 0.02 Mb     (    2581)
     Largest temporary arrays     est. size (Mb)     dimensions
        Auxiliary wavefunctions        11.00 Mb     (   45044,   32)
        Each subspace H/S matrix        0.01 Mb     (      32,   32)
        Each <psi_i|beta_j> matrix      0.00 Mb     (      16,    8)
        Arrays for rho mixing         210.94 Mb     ( 1728000,    8)

     Check: negative/imaginary core charge=   -0.000001    0.000000

     Initial potential from superposition of free atoms
     Check: negative starting charge=   -0.003961

     starting charge    9.99999, renormalised to   10.00000

     negative rho (up, down):  3.961E-03 0.000E+00
     Starting wfc are    8 randomized atomic wfcs
     Checking if some PAW data can be deallocated... 

     total cpu time spent up to now is        3.7 secs

     per-process dynamical memory:   202.7 Mb

     Self-consistent Calculation

     iteration #  1     ecut=    38.00 Ry     beta=0.50
     Davidson diagonalization with overlap
     ethr =  1.00E-02,  avg # of iterations =  7.0

     negative rho (up, down):  1.351E-02 0.000E+00

     total cpu time spent up to now is        8.4 secs

     total energy              =     -56.33070085 Ry
     Harris-Foulkes estimate   =     -56.48156408 Ry
     estimated scf accuracy    <       0.28315748 Ry

     iteration #  2     ecut=    38.00 Ry     beta=0.50
     Davidson diagonalization with overlap
     ethr =  2.83E-03,  avg # of iterations =  2.0

     negative rho (up, down):  1.939E-02 0.000E+00

     total cpu time spent up to now is       12.3 secs

     total energy              =     -56.36112649 Ry
     Harris-Foulkes estimate   =     -56.36897357 Ry
     estimated scf accuracy    <       0.01789090 Ry

     iteration #  3     ecut=    38.00 Ry     beta=0.50
     Davidson diagonalization with overlap
     ethr =  1.79E-04,  avg # of iterations = 11.0

     negative rho (up, down):  2.295E-02 0.000E+00

     total cpu time spent up to now is       17.5 secs

     total energy              =     -56.36266722 Ry
     Harris-Foulkes estimate   =     -56.36347270 Ry
     estimated scf accuracy    <       0.00185242 Ry

     iteration #  4     ecut=    38.00 Ry     beta=0.50
     Davidson diagonalization with overlap
     ethr =  1.85E-05,  avg # of iterations =  3.0

     negative rho (up, down):  2.349E-02 0.000E+00

     total cpu time spent up to now is       21.8 secs

     total energy              =     -56.36279793 Ry
     Harris-Foulkes estimate   =     -56.36285419 Ry
     estimated scf accuracy    <       0.00009523 Ry

     iteration #  5     ecut=    38.00 Ry     beta=0.50
     Davidson diagonalization with overlap
     ethr =  9.52E-07,  avg # of iterations =  5.0

     negative rho (up, down):  2.359E-02 0.000E+00

     total cpu time spent up to now is       26.6 secs

     total energy              =     -56.36282382 Ry
     Harris-Foulkes estimate   =     -56.36282475 Ry
     estimated scf accuracy    <       0.00000355 Ry

     iteration #  6     ecut=    38.00 Ry     beta=0.50
     Davidson diagonalization with overlap
     ethr =  3.55E-08,  avg # of iterations =  2.0

     negative rho (up, down):  2.367E-02 0.000E+00

     total cpu time spent up to now is       30.5 secs

     total energy              =     -56.36282390 Ry
     Harris-Foulkes estimate   =     -56.36282451 Ry
     estimated scf accuracy    <       0.00000119 Ry

     iteration #  7     ecut=    38.00 Ry     beta=0.50
     Davidson diagonalization with overlap
     ethr =  1.19E-08,  avg # of iterations =  2.0

     negative rho (up, down):  2.371E-02 0.000E+00

     total cpu time spent up to now is       34.3 secs

     End of self-consistent calculation

          k = 0.0000 0.0000 0.0000 ( 45044 PWs)   bands (ev):

   -29.8174 -12.7342 -12.4858 -12.4857 -10.2251  -0.6852  -0.6851  -0.5065

     highest occupied, lowest unoccupied level (ev):   -10.2251   -0.6852

!    total energy              =     -56.36282404 Ry
     Harris-Foulkes estimate   =     -56.36282405 Ry
     estimated scf accuracy    <       0.00000005 Ry

     total all-electron energy =      -218.960427 Ry

     The total energy is the sum of the following terms:

     one-electron contribution =     -93.19448880 Ry
     hartree contribution      =      47.86650824 Ry
     xc contribution           =     -10.82185784 Ry
     ewald contribution        =      16.46583375 Ry
     one-center paw contrib.   =     -16.67881939 Ry

     convergence has been achieved in   7 iterations

     Writing output data file pwscf.save
 
     init_run     :      3.18s CPU      3.49s WALL (       1 calls)
     electrons    :     29.05s CPU     30.70s WALL (       1 calls)

     Called by init_run:
     wfcinit      :      0.45s CPU      0.48s WALL (       1 calls)
     potinit      :      1.39s CPU      1.53s WALL (       1 calls)

     Called by electrons:
     c_bands      :     11.32s CPU     11.42s WALL (       7 calls)
     sum_band     :      5.46s CPU      5.99s WALL (       7 calls)
     v_of_rho     :      9.32s CPU      9.83s WALL (       8 calls)
     newd         :      2.31s CPU      2.95s WALL (       8 calls)
     mix_rho      :      1.02s CPU      1.04s WALL (       7 calls)

     Called by c_bands:
     init_us_2    :      0.22s CPU      0.22s WALL (      15 calls)
     regterg      :     10.90s CPU     11.01s WALL (       7 calls)

     Called by sum_band:
     sum_band:bec :      0.00s CPU      0.00s WALL (       7 calls)
     addusdens    :      2.84s CPU      3.37s WALL (       7 calls)

     Called by *egterg:
     h_psi        :     10.18s CPU     10.29s WALL (      40 calls)
     s_psi        :      0.15s CPU      0.14s WALL (      40 calls)
     g_psi        :      0.11s CPU      0.12s WALL (      32 calls)
     rdiaghg      :      0.00s CPU      0.01s WALL (      39 calls)

     Called by h_psi:
     add_vuspsi   :      0.12s CPU      0.13s WALL (      40 calls)

     General routines
     calbec       :      0.18s CPU      0.18s WALL (      47 calls)
     fft          :      5.91s CPU      6.31s WALL (     103 calls)
     fftw         :      9.91s CPU      9.98s WALL (     230 calls)
     davcio       :      0.00s CPU      0.00s WALL (       1 calls)
 
     Parallel routines
     fft_scatter  :      1.81s CPU      1.94s WALL (     333 calls)

     PAW routines
     PAW_pot      :      0.78s CPU      0.79s WALL (       8 calls)
     PAW_symme    :      0.00s CPU      0.00s WALL (      15 calls)
 
     PWSCF        :    32.59s CPU        34.58s WALL

 
   This run was terminated on:   5:30:36  30Oct2015            

=------------------------------------------------------------------------------=
   JOB DONE.
=------------------------------------------------------------------------------=
