
     Program PWSCF v.5.2.0 starts on 30Oct2015 at  5:35: 0 

     This program is part of the open-source Quantum ESPRESSO suite
     for quantum simulation of materials; please cite
         "P. Giannozzi et al., J. Phys.:Condens. Matter 21 395502 (2009);
          URL http://www.quantum-espresso.org", 
     in publications or presentations arising from this work. More details at
     http://www.quantum-espresso.org/quote

     Parallel version (MPI), running on     1 processors
     Waiting for input...
     Reading input from standard input

     Current dimensions of program PWSCF are:
     Max number of different atomic species (ntypx) = 10
     Max number of k-points (npk) =  40000
     Max angular momentum in pseudopotentials (lmaxx) =  3
               file N.pbe-kjpaw.UPF: wavefunction(s)  2P renormalized

     gamma-point specific algorithms are used

     Subspace diagonalization in iterative solution of the eigenvalue problem:
     a serial algorithm will be used

 
     G-vector sticks info
     --------------------
     sticks:   dense  smooth     PW     G-vecs:    dense   smooth      PW
     Sum        7685    7685   1917               505887   505887   63077
     Tot        3843    3843    959
 


     bravais-lattice index     =            1
     lattice parameter (alat)  =      28.3459  a.u.
     unit-cell volume          =   22775.6292 (a.u.)^3
     number of atoms/cell      =            2
     number of atomic types    =            1
     number of electrons       =        10.00
     number of Kohn-Sham states=            8
     kinetic-energy cutoff     =      30.0000  Ry
     charge density cutoff     =     120.0000  Ry
     convergence threshold     =      1.0E-06
     mixing beta               =       0.5000
     number of iterations used =            8  plain     mixing
     Exchange-correlation      =  SLA  PW   PBX  PBC ( 1  4  3  4 0 0)
     nstep                     =           50


     celldm(1)=  28.345892  celldm(2)=   0.000000  celldm(3)=   0.000000
     celldm(4)=   0.000000  celldm(5)=   0.000000  celldm(6)=   0.000000

     crystal axes: (cart. coord. in units of alat)
               a(1) = (   1.000000   0.000000   0.000000 )  
               a(2) = (   0.000000   1.000000   0.000000 )  
               a(3) = (   0.000000   0.000000   1.000000 )  

     reciprocal axes: (cart. coord. in units 2 pi/alat)
               b(1) = (  1.000000  0.000000  0.000000 )  
               b(2) = (  0.000000  1.000000  0.000000 )  
               b(3) = (  0.000000  0.000000  1.000000 )  


     PseudoPot. # 1 for  N read from file:
     ./pseudo/N.pbe-kjpaw.UPF
     MD5 check sum: 784def1e20c8513c628b118ec611e520
     Pseudo is Projector augmented-wave + core cor, Zval =  5.0
     Generated using "atomic" code by A. Dal Corso  (Quantum ESPRESSO distribution)
     Shape of augmentation charge: BESSEL
     Using radial grid of 1085 points,  4 beta functions with: 
                l(1) =   0
                l(2) =   0
                l(3) =   1
                l(4) =   1
     Q(r) pseudized with 0 coefficients 


     atomic species   valence    mass     pseudopotential
        N              5.00    14.00000      N( 1.00)

      8 Sym. Ops. (no inversion) found
          (note:  8 additional sym.ops. were found but ignored
           their fractional translations are incommensurate with FFT grid)


   Cartesian axes

     site n.     atom                  positions (alat units)
         1           N   tau(   1) = (   0.5000000   0.5000000   0.5000000  )
         2           N   tau(   2) = (   0.5000000   0.5000000   0.5666667  )

     number of k points=     1
                       cart. coord. in units 2pi/alat
        k(    1) = (   0.0000000   0.0000000   0.0000000), wk =   2.0000000

     Dense  grid:   252944 G-vectors     FFT dimensions: ( 100, 100, 100)

     Largest allocated arrays     est. size (Mb)     dimensions
        Kohn-Sham Wavefunctions         3.85 Mb     (   31539,    8)
        NL pseudopotentials             7.70 Mb     (   31539,   16)
        Each V/rho on FFT grid         15.26 Mb     ( 1000000)
        Each G-vector array             1.93 Mb     (  252944)
        G-vector shells                 0.02 Mb     (    2038)
     Largest temporary arrays     est. size (Mb)     dimensions
        Auxiliary wavefunctions         7.70 Mb     (   31539,   32)
        Each subspace H/S matrix        0.01 Mb     (      32,   32)
        Each <psi_i|beta_j> matrix      0.00 Mb     (      16,    8)
        Arrays for rho mixing         122.07 Mb     ( 1000000,    8)

     Check: negative/imaginary core charge=   -0.000001    0.000000

     Initial potential from superposition of free atoms
     Check: negative starting charge=   -0.000372

     starting charge    9.99999, renormalised to   10.00000

     negative rho (up, down):  3.721E-04 0.000E+00
     Starting wfc are    8 randomized atomic wfcs
     Checking if some PAW data can be deallocated... 

     total cpu time spent up to now is        2.7 secs

     per-process dynamical memory:   143.8 Mb

     Self-consistent Calculation

     iteration #  1     ecut=    30.00 Ry     beta=0.50
     Davidson diagonalization with overlap
     ethr =  1.00E-02,  avg # of iterations =  7.0

     negative rho (up, down):  5.067E-03 0.000E+00

     total cpu time spent up to now is        5.6 secs

     total energy              =     -56.31174606 Ry
     Harris-Foulkes estimate   =     -56.45866183 Ry
     estimated scf accuracy    <       0.27629890 Ry

     iteration #  2     ecut=    30.00 Ry     beta=0.50
     Davidson diagonalization with overlap
     ethr =  2.76E-03,  avg # of iterations =  2.0

     negative rho (up, down):  8.425E-03 0.000E+00

     total cpu time spent up to now is        8.0 secs

     total energy              =     -56.34077311 Ry
     Harris-Foulkes estimate   =     -56.34840663 Ry
     estimated scf accuracy    <       0.01762304 Ry

     iteration #  3     ecut=    30.00 Ry     beta=0.50
     Davidson diagonalization with overlap
     ethr =  1.76E-04,  avg # of iterations = 12.0

     negative rho (up, down):  1.056E-02 0.000E+00

     total cpu time spent up to now is       11.3 secs

     total energy              =     -56.34170273 Ry
     Harris-Foulkes estimate   =     -56.34245456 Ry
     estimated scf accuracy    <       0.00178663 Ry

     iteration #  4     ecut=    30.00 Ry     beta=0.50
     Davidson diagonalization with overlap
     ethr =  1.79E-05,  avg # of iterations =  3.0

     negative rho (up, down):  1.079E-02 0.000E+00

     total cpu time spent up to now is       13.9 secs

     total energy              =     -56.34181310 Ry
     Harris-Foulkes estimate   =     -56.34182052 Ry
     estimated scf accuracy    <       0.00001723 Ry

     iteration #  5     ecut=    30.00 Ry     beta=0.50
     Davidson diagonalization with overlap
     ethr =  1.72E-07,  avg # of iterations =  6.0

     negative rho (up, down):  1.083E-02 0.000E+00

     total cpu time spent up to now is       16.7 secs

     total energy              =     -56.34181939 Ry
     Harris-Foulkes estimate   =     -56.34181997 Ry
     estimated scf accuracy    <       0.00000187 Ry

     iteration #  6     ecut=    30.00 Ry     beta=0.50
     Davidson diagonalization with overlap
     ethr =  1.87E-08,  avg # of iterations =  2.0

     negative rho (up, down):  1.090E-02 0.000E+00

     total cpu time spent up to now is       19.0 secs

     End of self-consistent calculation

          k = 0.0000 0.0000 0.0000 ( 31539 PWs)   bands (ev):

   -29.8582 -12.7606 -12.4912 -12.4911 -10.2086  -0.6822  -0.6820  -0.5092

     highest occupied, lowest unoccupied level (ev):   -10.2086   -0.6822

!    total energy              =     -56.34181959 Ry
     Harris-Foulkes estimate   =     -56.34181965 Ry
     estimated scf accuracy    <       0.00000033 Ry

     total all-electron energy =      -218.939422 Ry

     The total energy is the sum of the following terms:

     one-electron contribution =     -93.16252129 Ry
     hartree contribution      =      47.83652622 Ry
     xc contribution           =     -10.81473725 Ry
     ewald contribution        =      16.46583375 Ry
     one-center paw contrib.   =     -16.66692103 Ry

     convergence has been achieved in   6 iterations

     Forces acting on atoms (Ry/au):


     negative rho (up, down):  1.090E-02 0.000E+00
     atom    1 type  1   force =     0.00000000    0.00000000   -0.89111908
     atom    2 type  1   force =     0.00000000    0.00000000    0.89111908

     Total force =     1.260233     Total SCF correction =     0.000574

     BFGS Geometry Optimization

     number of scf cycles    =   1
     number of bfgs steps    =   0

     energy   new            =     -56.3418195913 Ry

     new trust radius        =       0.5000000000 bohr
     new conv_thr            =       0.0000010000 Ry


ATOMIC_POSITIONS (angstrom)
N        7.500000000   7.500000000   7.235411396
N        7.500000000   7.500000000   8.764588604



     Writing output data file pwscf.save
     Check: negative starting charge=   -0.000372
     NEW-OLD atomic charge density approx. for the potential

     Check: negative/imaginary core charge=   -0.000001    0.000000
     Check: negative starting charge=   -0.000355

     negative rho (up, down):  1.043E-02 0.000E+00

     total cpu time spent up to now is       22.2 secs

     per-process dynamical memory:   246.1 Mb

     Self-consistent Calculation

     iteration #  1     ecut=    30.00 Ry     beta=0.50
     Davidson diagonalization with overlap
     ethr =  1.00E-06,  avg # of iterations =  7.0

     negative rho (up, down):  5.935E-03 0.000E+00

     total cpu time spent up to now is       25.9 secs

     total energy              =     -55.99429234 Ry
     Harris-Foulkes estimate   =     -56.27678390 Ry
     estimated scf accuracy    <       0.28226975 Ry

     iteration #  2     ecut=    30.00 Ry     beta=0.50
     Davidson diagonalization with overlap
     ethr =  2.82E-03,  avg # of iterations =  2.0

     negative rho (up, down):  3.851E-03 0.000E+00

     total cpu time spent up to now is       28.3 secs

     total energy              =     -56.04586622 Ry
     Harris-Foulkes estimate   =     -56.04422826 Ry
     estimated scf accuracy    <       0.01201473 Ry

     iteration #  3     ecut=    30.00 Ry     beta=0.50
     Davidson diagonalization with overlap
     ethr =  1.20E-04,  avg # of iterations =  2.0

     negative rho (up, down):  2.667E-03 0.000E+00

     total cpu time spent up to now is       30.8 secs

     total energy              =     -56.04683320 Ry
     Harris-Foulkes estimate   =     -56.04677093 Ry
     estimated scf accuracy    <       0.00335122 Ry

     iteration #  4     ecut=    30.00 Ry     beta=0.50
     Davidson diagonalization with overlap
     ethr =  3.35E-05,  avg # of iterations =  3.0

     negative rho (up, down):  2.307E-03 0.000E+00

     total cpu time spent up to now is       33.2 secs

     total energy              =     -56.04481264 Ry
     Harris-Foulkes estimate   =     -56.05061238 Ry
     estimated scf accuracy    <       0.03861805 Ry

     iteration #  5     ecut=    30.00 Ry     beta=0.50
     Davidson diagonalization with overlap
     ethr =  3.35E-05,  avg # of iterations =  3.0

     negative rho (up, down):  2.194E-03 0.000E+00

     total cpu time spent up to now is       35.7 secs

     total energy              =     -56.04772435 Ry
     Harris-Foulkes estimate   =     -56.04771570 Ry
     estimated scf accuracy    <       0.00005296 Ry

     iteration #  6     ecut=    30.00 Ry     beta=0.50
     Davidson diagonalization with overlap
     ethr =  5.30E-07,  avg # of iterations =  4.0

     negative rho (up, down):  2.194E-03 0.000E+00

     total cpu time spent up to now is       38.3 secs

     total energy              =     -56.04773897 Ry
     Harris-Foulkes estimate   =     -56.04773897 Ry
     estimated scf accuracy    <       0.00000309 Ry

     iteration #  7     ecut=    30.00 Ry     beta=0.50
     Davidson diagonalization with overlap
     ethr =  3.09E-08,  avg # of iterations =  2.0

     negative rho (up, down):  2.196E-03 0.000E+00

     total cpu time spent up to now is       40.6 secs

     End of self-consistent calculation

          k = 0.0000 0.0000 0.0000 ( 31539 PWs)   bands (ev):

   -22.8404 -16.1160  -9.7631  -9.1583  -9.1583  -5.2746  -5.2746  -0.5189

     highest occupied, lowest unoccupied level (ev):    -9.1583   -5.2746

!    total energy              =     -56.04773937 Ry
     Harris-Foulkes estimate   =     -56.04773938 Ry
     estimated scf accuracy    <       0.00000038 Ry

     total all-electron energy =      -218.645342 Ry

     The total energy is the sum of the following terms:

     one-electron contribution =     -76.56574116 Ry
     hartree contribution      =      39.70741772 Ry
     xc contribution           =      -9.88561914 Ry
     ewald contribution        =       7.33211143 Ry
     one-center paw contrib.   =     -16.63590822 Ry

     convergence has been achieved in   7 iterations

     Forces acting on atoms (Ry/au):


     negative rho (up, down):  2.196E-03 0.000E+00
     atom    1 type  1   force =     0.00000000    0.00000000    0.57512449
     atom    2 type  1   force =     0.00000000    0.00000000   -0.57512449

     Total force =     0.813349     Total SCF correction =     0.000976

     number of scf cycles    =   2
     number of bfgs steps    =   1

     energy   old            =     -56.3418195913 Ry
     energy   new            =     -56.0477393680 Ry

     CASE: energy  _new > energy  _old

     new trust radius        =       0.1879681916 bohr
     new conv_thr            =       0.0000010000 Ry


ATOMIC_POSITIONS (angstrom)
N        7.500000000   7.500000000   7.400531517
N        7.500000000   7.500000000   8.599468483



     Writing output data file pwscf.save
     Check: negative starting charge=   -0.000355
     NEW-OLD atomic charge density approx. for the potential

     Check: negative/imaginary core charge=   -0.000001    0.000000
     Check: negative starting charge=   -0.000353

     negative rho (up, down):  2.171E-03 0.000E+00

     total cpu time spent up to now is       43.6 secs

     per-process dynamical memory:   246.1 Mb

     Self-consistent Calculation

     iteration #  1     ecut=    30.00 Ry     beta=0.50
     Davidson diagonalization with overlap
     ethr =  1.00E-06,  avg # of iterations =  7.0

     negative rho (up, down):  3.119E-03 0.000E+00

     total cpu time spent up to now is       47.3 secs

     total energy              =     -56.38190157 Ry
     Harris-Foulkes estimate   =     -56.50064965 Ry
     estimated scf accuracy    <       0.05998058 Ry

     iteration #  2     ecut=    30.00 Ry     beta=0.50
     Davidson diagonalization with overlap
     ethr =  6.00E-04,  avg # of iterations =  2.0

     negative rho (up, down):  4.625E-03 0.000E+00

     total cpu time spent up to now is       49.7 secs

     total energy              =     -56.38936297 Ry
     Harris-Foulkes estimate   =     -56.38940060 Ry
     estimated scf accuracy    <       0.00276821 Ry

     iteration #  3     ecut=    30.00 Ry     beta=0.50
     Davidson diagonalization with overlap
     ethr =  2.77E-05,  avg # of iterations =  2.0

     negative rho (up, down):  5.590E-03 0.000E+00

     total cpu time spent up to now is       52.1 secs

     total energy              =     -56.38954835 Ry
     Harris-Foulkes estimate   =     -56.38949060 Ry
     estimated scf accuracy    <       0.00037001 Ry

     iteration #  4     ecut=    30.00 Ry     beta=0.50
     Davidson diagonalization with overlap
     ethr =  3.70E-06,  avg # of iterations =  4.0

     negative rho (up, down):  5.699E-03 0.000E+00

     total cpu time spent up to now is       54.6 secs

     total energy              =     -56.38954887 Ry
     Harris-Foulkes estimate   =     -56.38962707 Ry
     estimated scf accuracy    <       0.00027880 Ry

     iteration #  5     ecut=    30.00 Ry     beta=0.50
     Davidson diagonalization with overlap
     ethr =  2.79E-06,  avg # of iterations =  1.0

     negative rho (up, down):  5.766E-03 0.000E+00

     total cpu time spent up to now is       56.9 secs

     total energy              =     -56.38958544 Ry
     Harris-Foulkes estimate   =     -56.38958581 Ry
     estimated scf accuracy    <       0.00000322 Ry

     iteration #  6     ecut=    30.00 Ry     beta=0.50
     Davidson diagonalization with overlap
     ethr =  3.22E-08,  avg # of iterations =  3.0

     negative rho (up, down):  5.771E-03 0.000E+00

     total cpu time spent up to now is       59.6 secs

     total energy              =     -56.38958694 Ry
     Harris-Foulkes estimate   =     -56.38958737 Ry
     estimated scf accuracy    <       0.00000155 Ry

     iteration #  7     ecut=    30.00 Ry     beta=0.50
     Davidson diagonalization with overlap
     ethr =  1.55E-08,  avg # of iterations =  1.0

     negative rho (up, down):  5.774E-03 0.000E+00

     total cpu time spent up to now is       61.7 secs

     End of self-consistent calculation

          k = 0.0000 0.0000 0.0000 ( 31539 PWs)   bands (ev):

   -26.8479 -14.1487 -10.8498 -10.8498 -10.0956  -2.9865  -2.9865  -0.4959

     highest occupied, lowest unoccupied level (ev):   -10.0956   -2.9865

!    total energy              =     -56.38958712 Ry
     Harris-Foulkes estimate   =     -56.38958714 Ry
     estimated scf accuracy    <       0.00000003 Ry

     total all-electron energy =      -218.987190 Ry

     The total energy is the sum of the following terms:

     one-electron contribution =     -85.59262018 Ry
     hartree contribution      =      44.09793053 Ry
     xc contribution           =     -10.33991330 Ry
     ewald contribution        =      12.08287171 Ry
     one-center paw contrib.   =     -16.63785589 Ry

     convergence has been achieved in   7 iterations

     Forces acting on atoms (Ry/au):


     negative rho (up, down):  5.774E-03 0.000E+00
     atom    1 type  1   force =     0.00000000    0.00000000    0.35558113
     atom    2 type  1   force =     0.00000000    0.00000000   -0.35558113

     Total force =     0.502868     Total SCF correction =     0.000028

     number of scf cycles    =   3
     number of bfgs steps    =   1

     energy   old            =     -56.3418195913 Ry
     energy   new            =     -56.3895871235 Ry

     CASE: energy  _new < energy  _old

     new trust radius        =       0.0536118805 bohr
     new conv_thr            =       0.0000010000 Ry


ATOMIC_POSITIONS (angstrom)
N        7.500000000   7.500000000   7.428901702
N        7.500000000   7.500000000   8.571098298



     Writing output data file pwscf.save
     Check: negative starting charge=   -0.000353
     NEW-OLD atomic charge density approx. for the potential

     Check: negative/imaginary core charge=   -0.000001    0.000000
     Check: negative starting charge=   -0.000351

     negative rho (up, down):  5.806E-03 0.000E+00

     total cpu time spent up to now is       64.8 secs

     per-process dynamical memory:   246.1 Mb

     Self-consistent Calculation

     iteration #  1     ecut=    30.00 Ry     beta=0.50
     Davidson diagonalization with overlap
     ethr =  1.00E-06,  avg # of iterations =  5.0

     negative rho (up, down):  6.026E-03 0.000E+00

     total cpu time spent up to now is       67.9 secs

     total energy              =     -56.41714904 Ry
     Harris-Foulkes estimate   =     -56.42352539 Ry
     estimated scf accuracy    <       0.00480901 Ry

     iteration #  2     ecut=    30.00 Ry     beta=0.50
     Davidson diagonalization with overlap
     ethr =  4.81E-05,  avg # of iterations =  2.0

     negative rho (up, down):  6.294E-03 0.000E+00

     total cpu time spent up to now is       70.3 secs

     total energy              =     -56.41784869 Ry
     Harris-Foulkes estimate   =     -56.41787734 Ry
     estimated scf accuracy    <       0.00016390 Ry

     iteration #  3     ecut=    30.00 Ry     beta=0.50
     Davidson diagonalization with overlap
     ethr =  1.64E-06,  avg # of iterations =  3.0

     negative rho (up, down):  6.547E-03 0.000E+00

     total cpu time spent up to now is       72.8 secs

     total energy              =     -56.41785502 Ry
     Harris-Foulkes estimate   =     -56.41785710 Ry
     estimated scf accuracy    <       0.00002433 Ry

     iteration #  4     ecut=    30.00 Ry     beta=0.50
     Davidson diagonalization with overlap
     ethr =  2.43E-07,  avg # of iterations =  1.0

     negative rho (up, down):  6.588E-03 0.000E+00

     total cpu time spent up to now is       74.9 secs

     End of self-consistent calculation

          k = 0.0000 0.0000 0.0000 ( 31539 PWs)   bands (ev):

   -27.6886 -13.7617 -11.2534 -11.2534 -10.1277  -2.4005  -2.4005  -0.4893

     highest occupied, lowest unoccupied level (ev):   -10.1277   -2.4005

!    total energy              =     -56.41785625 Ry
     Harris-Foulkes estimate   =     -56.41785634 Ry
     estimated scf accuracy    <       0.00000035 Ry

     total all-electron energy =      -219.015459 Ry

     The total energy is the sum of the following terms:

     one-electron contribution =     -87.55854239 Ry
     hartree contribution      =      45.06176408 Ry
     xc contribution           =     -10.45594929 Ry
     ewald contribution        =      13.17694271 Ry
     one-center paw contrib.   =     -16.64207136 Ry

     convergence has been achieved in   4 iterations

     Forces acting on atoms (Ry/au):


     negative rho (up, down):  6.588E-03 0.000E+00
     atom    1 type  1   force =     0.00000000    0.00000000    0.15783624
     atom    2 type  1   force =     0.00000000    0.00000000   -0.15783624

     Total force =     0.223214     Total SCF correction =     0.001344

     number of scf cycles    =   4
     number of bfgs steps    =   2

     energy   old            =     -56.3895871235 Ry
     energy   new            =     -56.4178562549 Ry

     CASE: energy  _new < energy  _old

     new trust radius        =       0.0427919930 bohr
     new conv_thr            =       0.0000010000 Ry


ATOMIC_POSITIONS (angstrom)
N        7.500000000   7.500000000   7.451546250
N        7.500000000   7.500000000   8.548453750



     Writing output data file pwscf.save
     Check: negative starting charge=   -0.000351
     NEW-OLD atomic charge density approx. for the potential

     Check: negative/imaginary core charge=   -0.000001    0.000000
     Check: negative starting charge=   -0.000356

     negative rho (up, down):  6.634E-03 0.000E+00

     total cpu time spent up to now is       78.0 secs

     per-process dynamical memory:   246.1 Mb

     Self-consistent Calculation

     iteration #  1     ecut=    30.00 Ry     beta=0.50
     Davidson diagonalization with overlap
     ethr =  1.00E-06,  avg # of iterations =  4.0

     negative rho (up, down):  7.143E-03 0.000E+00

     total cpu time spent up to now is       81.0 secs

     total energy              =     -56.42138041 Ry
     Harris-Foulkes estimate   =     -56.42489384 Ry
     estimated scf accuracy    <       0.00400184 Ry

     iteration #  2     ecut=    30.00 Ry     beta=0.50
     Davidson diagonalization with overlap
     ethr =  4.00E-05,  avg # of iterations =  2.0

     negative rho (up, down):  7.512E-03 0.000E+00

     total cpu time spent up to now is       83.5 secs

     total energy              =     -56.42197130 Ry
     Harris-Foulkes estimate   =     -56.42200027 Ry
     estimated scf accuracy    <       0.00013444 Ry

     iteration #  3     ecut=    30.00 Ry     beta=0.50
     Davidson diagonalization with overlap
     ethr =  1.34E-06,  avg # of iterations =  3.0

     negative rho (up, down):  7.794E-03 0.000E+00

     total cpu time spent up to now is       86.0 secs

     total energy              =     -56.42197637 Ry
     Harris-Foulkes estimate   =     -56.42197948 Ry
     estimated scf accuracy    <       0.00001982 Ry

     iteration #  4     ecut=    30.00 Ry     beta=0.50
     Davidson diagonalization with overlap
     ethr =  1.98E-07,  avg # of iterations =  1.0

     negative rho (up, down):  7.832E-03 0.000E+00

     total cpu time spent up to now is       88.3 secs

     total energy              =     -56.42197690 Ry
     Harris-Foulkes estimate   =     -56.42197871 Ry
     estimated scf accuracy    <       0.00000514 Ry

     iteration #  5     ecut=    30.00 Ry     beta=0.50
     Davidson diagonalization with overlap
     ethr =  5.14E-08,  avg # of iterations =  1.0

     negative rho (up, down):  7.868E-03 0.000E+00

     total cpu time spent up to now is       90.5 secs

     End of self-consistent calculation

          k = 0.0000 0.0000 0.0000 ( 31539 PWs)   bands (ev):

   -28.3824 -13.4488 -11.6126 -11.6126 -10.1557  -1.8917  -1.8917  -0.4937

     highest occupied, lowest unoccupied level (ev):   -10.1557   -1.8917

!    total energy              =     -56.42197771 Ry
     Harris-Foulkes estimate   =     -56.42197776 Ry
     estimated scf accuracy    <       0.00000016 Ry

     total all-electron energy =      -219.019580 Ry

     The total energy is the sum of the following terms:

     one-electron contribution =     -89.23420292 Ry
     hartree contribution      =      45.88665984 Ry
     xc contribution           =     -10.55893872 Ry
     ewald contribution        =      14.13168167 Ry
     one-center paw contrib.   =     -16.64717759 Ry

     convergence has been achieved in   5 iterations

     Forces acting on atoms (Ry/au):


     negative rho (up, down):  7.868E-03 0.000E+00
     atom    1 type  1   force =     0.00000000    0.00000000   -0.07325467
     atom    2 type  1   force =     0.00000000    0.00000000    0.07325467

     Total force =     0.103598     Total SCF correction =     0.000991

     number of scf cycles    =   5
     number of bfgs steps    =   3

     energy   old            =     -56.4178562549 Ry
     energy   new            =     -56.4219777141 Ry

     CASE: energy  _new < energy  _old

     new trust radius        =       0.0135648493 bohr
     new conv_thr            =       0.0000004121 Ry


ATOMIC_POSITIONS (angstrom)
N        7.500000000   7.500000000   7.444368041
N        7.500000000   7.500000000   8.555631959



     Writing output data file pwscf.save
     Check: negative starting charge=   -0.000356
     NEW-OLD atomic charge density approx. for the potential

     Check: negative/imaginary core charge=   -0.000001    0.000000
     Check: negative starting charge=   -0.000353

     negative rho (up, down):  7.844E-03 0.000E+00

     total cpu time spent up to now is       93.6 secs

     per-process dynamical memory:   246.1 Mb

     Self-consistent Calculation

     iteration #  1     ecut=    30.00 Ry     beta=0.50
     Davidson diagonalization with overlap
     ethr =  1.00E-06,  avg # of iterations =  4.0

     negative rho (up, down):  7.600E-03 0.000E+00

     total cpu time spent up to now is       96.4 secs

     total energy              =     -56.42277919 Ry
     Harris-Foulkes estimate   =     -56.42358714 Ry
     estimated scf accuracy    <       0.00043358 Ry

     iteration #  2     ecut=    30.00 Ry     beta=0.50
     Davidson diagonalization with overlap
     ethr =  4.34E-06,  avg # of iterations =  2.0

     negative rho (up, down):  7.491E-03 0.000E+00

     total cpu time spent up to now is       98.9 secs

     total energy              =     -56.42284578 Ry
     Harris-Foulkes estimate   =     -56.42284883 Ry
     estimated scf accuracy    <       0.00001481 Ry

     iteration #  3     ecut=    30.00 Ry     beta=0.50
     Davidson diagonalization with overlap
     ethr =  1.48E-07,  avg # of iterations =  2.0

     negative rho (up, down):  7.423E-03 0.000E+00

     total cpu time spent up to now is      101.2 secs

     total energy              =     -56.42284625 Ry
     Harris-Foulkes estimate   =     -56.42284666 Ry
     estimated scf accuracy    <       0.00000225 Ry

     iteration #  4     ecut=    30.00 Ry     beta=0.50
     Davidson diagonalization with overlap
     ethr =  2.25E-08,  avg # of iterations =  1.0

     negative rho (up, down):  7.415E-03 0.000E+00

     total cpu time spent up to now is      103.5 secs

     total energy              =     -56.42284633 Ry
     Harris-Foulkes estimate   =     -56.42284653 Ry
     estimated scf accuracy    <       0.00000060 Ry

     iteration #  5     ecut=    30.00 Ry     beta=0.50
     Davidson diagonalization with overlap
     ethr =  6.01E-09,  avg # of iterations =  1.0

     negative rho (up, down):  7.406E-03 0.000E+00

     total cpu time spent up to now is      105.7 secs

     End of self-consistent calculation

          k = 0.0000 0.0000 0.0000 ( 31539 PWs)   bands (ev):

   -28.1667 -13.5503 -11.4989 -11.4989 -10.1488  -2.0596  -2.0596  -0.4912

     highest occupied, lowest unoccupied level (ev):   -10.1488   -2.0596

!    total energy              =     -56.42284642 Ry
     Harris-Foulkes estimate   =     -56.42284643 Ry
     estimated scf accuracy    <       0.00000002 Ry

     total all-electron energy =      -219.020449 Ry

     The total energy is the sum of the following terms:

     one-electron contribution =     -88.69317204 Ry
     hartree contribution      =      45.62044356 Ry
     xc contribution           =     -10.52536753 Ry
     ewald contribution        =      13.82058720 Ry
     one-center paw contrib.   =     -16.64533761 Ry

     convergence has been achieved in   5 iterations

     Forces acting on atoms (Ry/au):


     negative rho (up, down):  7.406E-03 0.000E+00
     atom    1 type  1   force =     0.00000000    0.00000000    0.00788575
     atom    2 type  1   force =     0.00000000    0.00000000   -0.00788575

     Total force =     0.011152     Total SCF correction =     0.000409

     number of scf cycles    =   6
     number of bfgs steps    =   4

     energy   old            =     -56.4219777141 Ry
     energy   new            =     -56.4228464194 Ry

     CASE: energy  _new < energy  _old

     new trust radius        =       0.0013183198 bohr
     new conv_thr            =       0.0000000789 Ry


ATOMIC_POSITIONS (angstrom)
N        7.500000000   7.500000000   7.445065665
N        7.500000000   7.500000000   8.554934335



     Writing output data file pwscf.save
     Check: negative starting charge=   -0.000353
     NEW-OLD atomic charge density approx. for the potential

     Check: negative/imaginary core charge=   -0.000001    0.000000
     Check: negative starting charge=   -0.000354

     negative rho (up, down):  7.408E-03 0.000E+00

     total cpu time spent up to now is      108.8 secs

     per-process dynamical memory:   246.1 Mb

     Self-consistent Calculation

     iteration #  1     ecut=    30.00 Ry     beta=0.50
     Davidson diagonalization with overlap
     ethr =  1.00E-06,  avg # of iterations =  2.0

     Threshold (ethr) on eigenvalues was too large:
     Diagonalizing with lowered threshold

     Davidson diagonalization with overlap
     ethr =  3.72E-08,  avg # of iterations =  1.0

     negative rho (up, down):  7.430E-03 0.000E+00

     total cpu time spent up to now is      112.4 secs

     total energy              =     -56.42285684 Ry
     Harris-Foulkes estimate   =     -56.42283271 Ry
     estimated scf accuracy    <       0.00000377 Ry

     iteration #  2     ecut=    30.00 Ry     beta=0.50
     Davidson diagonalization with overlap
     ethr =  3.77E-08,  avg # of iterations =  2.0

     negative rho (up, down):  7.440E-03 0.000E+00

     total cpu time spent up to now is      114.8 secs

     total energy              =     -56.42285740 Ry
     Harris-Foulkes estimate   =     -56.42285744 Ry
     estimated scf accuracy    <       0.00000016 Ry

     iteration #  3     ecut=    30.00 Ry     beta=0.50
     Davidson diagonalization with overlap
     ethr =  1.58E-09,  avg # of iterations =  2.0

     negative rho (up, down):  7.448E-03 0.000E+00

     total cpu time spent up to now is      117.1 secs

     End of self-consistent calculation

          k = 0.0000 0.0000 0.0000 ( 31539 PWs)   bands (ev):

   -28.1867 -13.5398 -11.5088 -11.5088 -10.1490  -2.0426  -2.0426  -0.4915

     highest occupied, lowest unoccupied level (ev):   -10.1490   -2.0426

!    total energy              =     -56.42285738 Ry
     Harris-Foulkes estimate   =     -56.42285742 Ry
     estimated scf accuracy    <       0.00000006 Ry

     total all-electron energy =      -219.020460 Ry

     The total energy is the sum of the following terms:

     one-electron contribution =     -88.74517933 Ry
     hartree contribution      =      45.64591459 Ry
     xc contribution           =     -10.52855673 Ry
     ewald contribution        =      13.85046739 Ry
     one-center paw contrib.   =     -16.64550330 Ry

     convergence has been achieved in   3 iterations

     Forces acting on atoms (Ry/au):


     negative rho (up, down):  7.448E-03 0.000E+00
     atom    1 type  1   force =     0.00000000    0.00000000    0.00044493
     atom    2 type  1   force =     0.00000000    0.00000000   -0.00044493

     Total force =     0.000629     Total SCF correction =     0.000450
     SCF correction compared to forces is large: reduce conv_thr to get better values

     bfgs converged in   7 scf cycles and   5 bfgs steps
     (criteria: energy <  1.0E-04, force <  1.0E-03)

     End of BFGS Geometry Optimization

     Final energy   =     -56.4228573773 Ry
Begin final coordinates

ATOMIC_POSITIONS (angstrom)
N        7.500000000   7.500000000   7.445065665
N        7.500000000   7.500000000   8.554934335
End final coordinates



     Writing output data file pwscf.save
 
     init_run     :      2.27s CPU      2.43s WALL (       1 calls)
     electrons    :     92.24s CPU     96.54s WALL (       7 calls)
     update_pot   :      6.91s CPU      6.99s WALL (       6 calls)
     forces       :      8.61s CPU      9.10s WALL (       7 calls)

     Called by init_run:
     wfcinit      :      0.27s CPU      0.29s WALL (       1 calls)
     potinit      :      0.93s CPU      1.00s WALL (       1 calls)

     Called by electrons:
     c_bands      :     31.95s CPU     32.02s WALL (      38 calls)
     sum_band     :     19.20s CPU     21.17s WALL (      38 calls)
     v_of_rho     :     30.81s CPU     31.03s WALL (      44 calls)
     newd         :      8.74s CPU     10.96s WALL (      44 calls)
     mix_rho      :      3.08s CPU      3.08s WALL (      38 calls)

     Called by c_bands:
     init_us_2    :      0.80s CPU      0.82s WALL (      83 calls)
     regterg      :     30.47s CPU     30.53s WALL (      38 calls)

     Called by sum_band:
     sum_band:bec :      0.00s CPU      0.00s WALL (      44 calls)
     addusdens    :     10.76s CPU     12.64s WALL (      38 calls)

     Called by *egterg:
     h_psi        :     27.30s CPU     27.40s WALL (     153 calls)
     s_psi        :      0.38s CPU      0.41s WALL (     153 calls)
     g_psi        :      0.38s CPU      0.39s WALL (     114 calls)
     rdiaghg      :      0.05s CPU      0.03s WALL (     145 calls)

     Called by h_psi:
     add_vuspsi   :      0.40s CPU      0.40s WALL (     153 calls)

     General routines
     calbec       :      0.63s CPU      0.67s WALL (     225 calls)
     fft          :     22.62s CPU     22.85s WALL (     651 calls)
     fftw         :     26.98s CPU     27.01s WALL (    1066 calls)
     davcio       :      0.01s CPU      0.01s WALL (       7 calls)
 
     Parallel routines
     fft_scatter  :      6.15s CPU      6.13s WALL (    1717 calls)

     PAW routines
     PAW_pot      :      4.88s CPU      4.89s WALL (      50 calls)
     PAW_symme    :      0.01s CPU      0.00s WALL (      88 calls)
 
     PWSCF        :  1m53.10s CPU     1m58.53s WALL

 
   This run was terminated on:   5:36:58  30Oct2015            

=------------------------------------------------------------------------------=
   JOB DONE.
=------------------------------------------------------------------------------=
