
     Program PWSCF v.6.1 (svn rev. 13369) starts on 10Jun2017 at 23: 6:45 

     This program is part of the open-source Quantum ESPRESSO suite
     for quantum simulation of materials; please cite
         "P. Giannozzi et al., J. Phys.:Condens. Matter 21 395502 (2009);
          URL http://www.quantum-espresso.org", 
     in publications or presentations arising from this work. More details at
     http://www.quantum-espresso.org/quote

     Parallel version (MPI), running on     1 processors
     Waiting for input...
     Reading input from standard input

     Current dimensions of program PWSCF are:
     Max number of different atomic species (ntypx) = 10
     Max number of k-points (npk) =  40000
     Max angular momentum in pseudopotentials (lmaxx) =  3

     gamma-point specific algorithms are used

     Subspace diagonalization in iterative solution of the eigenvalue problem:
     a serial algorithm will be used


     G-vector sticks info
     --------------------
     sticks:   dense  smooth     PW     G-vecs:    dense   smooth      PW
     Sum        2449    2449    609                91047    91047   11363



     bravais-lattice index     =            0
     lattice parameter (alat)  =      16.0000  a.u.
     unit-cell volume          =    4096.0000 (a.u.)^3
     number of atoms/cell      =            4
     number of atomic types    =            2
     number of electrons       =         8.00
     number of Kohn-Sham states=            4
     kinetic-energy cutoff     =      30.0000  Ry
     charge density cutoff     =     120.0000  Ry
     convergence threshold     =      1.0E-06
     mixing beta               =       0.7000
     number of iterations used =            8  plain     mixing
     Exchange-correlation      = PBE ( 1  4  3  4 0 0)
     nstep                     =         1000


     celldm(1)=  16.000000  celldm(2)=   0.000000  celldm(3)=   0.000000
     celldm(4)=   0.000000  celldm(5)=   0.000000  celldm(6)=   0.000000

     crystal axes: (cart. coord. in units of alat)
               a(1) = (   1.000000   0.000000   0.000000 )  
               a(2) = (   0.000000   1.000000   0.000000 )  
               a(3) = (   0.000000   0.000000   1.000000 )  

     reciprocal axes: (cart. coord. in units 2 pi/alat)
               b(1) = (  1.000000  0.000000  0.000000 )  
               b(2) = (  0.000000  1.000000  0.000000 )  
               b(3) = (  0.000000  0.000000  1.000000 )  


     PseudoPot. # 1 for  H read from file:
     GTH_PBE_2015/H.q1.gth
     MD5 check sum: d076fc93ed96f5cc3314eceb273f8fe5
     Pseudo is Norm-conserving, Zval =  1.0
     GTH norm-conserving PP, generated by Matthias Krack
     Using radial grid of  929 points,  0 beta functions with: 

     PseudoPot. # 2 for  N read from file:
     GTH_PBE_2015/N.q5.gth
     MD5 check sum: 1476ec718fff327fe2c88f248f2514f7
     Pseudo is Norm-conserving + core correction, Zval =  5.0
     New Soft-Accurate NLCC pseudopotentials, generated by Santanu Saha
     Using radial grid of 1085 points,  2 beta functions with: 
                l(1) =   0
                l(2) =   0

     atomic species   valence    mass     pseudopotential
        H              1.00     1.01000      H( 1.00)
        N              5.00    14.01000      N( 1.00)

     No symmetry found



   Cartesian axes

     site n.     atom                  positions (alat units)
         1           N   tau(   1) = (   0.4503085   0.4518267   0.4524722  )
         2           H   tau(   2) = (   0.5667983   0.4305661   0.4292002  )
         3           H   tau(   3) = (   0.4332017   0.5694339   0.4316014  )
         4           H   tau(   4) = (   0.4365324   0.4366156   0.5707998  )

     number of k points=     1
                       cart. coord. in units 2pi/alat
        k(    1) = (   0.0000000   0.0000000   0.0000000), wk =   2.0000000

     Dense  grid:    45524 G-vectors     FFT dimensions: (  60,  60,  60)

     Estimated max dynamical RAM per process >      35.67MB

     Check: negative/imaginary core charge=   -0.000002    0.000000

     Initial potential from superposition of free atoms

     negative rho (up, down):  2.993E-08 0.000E+00
     Starting wfc are random

     total cpu time spent up to now is        0.4 secs

     per-process dynamical memory:    35.5 Mb

     Self-consistent Calculation

     iteration #  1     ecut=    30.00 Ry     beta=0.70
     Davidson diagonalization with overlap
     ethr =  1.00E-02,  avg # of iterations =  9.0

     total cpu time spent up to now is        0.8 secs

     total energy              =     -18.84506366 Ry
     Harris-Foulkes estimate   =     -27.03311446 Ry
     estimated scf accuracy    <      10.27502307 Ry

     iteration #  2     ecut=    30.00 Ry     beta=0.70
     Davidson diagonalization with overlap
     ethr =  1.00E-02,  avg # of iterations =  6.0

     total cpu time spent up to now is        1.2 secs

     total energy              =     -23.63339871 Ry
     Harris-Foulkes estimate   =     -27.28862426 Ry
     estimated scf accuracy    <       6.97304723 Ry

     iteration #  3     ecut=    30.00 Ry     beta=0.70
     Davidson diagonalization with overlap
     ethr =  1.00E-02,  avg # of iterations =  3.0

     total cpu time spent up to now is        1.5 secs

     total energy              =     -24.28588986 Ry
     Harris-Foulkes estimate   =     -24.45425247 Ry
     estimated scf accuracy    <       0.54444368 Ry

     iteration #  4     ecut=    30.00 Ry     beta=0.70
     Davidson diagonalization with overlap
     ethr =  6.81E-03,  avg # of iterations =  1.0

     total cpu time spent up to now is        1.8 secs

     total energy              =     -24.13442943 Ry
     Harris-Foulkes estimate   =     -24.29376335 Ry
     estimated scf accuracy    <       0.24570021 Ry

     iteration #  5     ecut=    30.00 Ry     beta=0.70
     Davidson diagonalization with overlap
     ethr =  3.07E-03,  avg # of iterations =  2.0

     total cpu time spent up to now is        2.2 secs

     total energy              =     -24.17121208 Ry
     Harris-Foulkes estimate   =     -24.17984605 Ry
     estimated scf accuracy    <       0.01385005 Ry

     iteration #  6     ecut=    30.00 Ry     beta=0.70
     Davidson diagonalization with overlap
     ethr =  1.73E-04,  avg # of iterations =  2.0

     total cpu time spent up to now is        2.5 secs

     total energy              =     -24.17551823 Ry
     Harris-Foulkes estimate   =     -24.17716126 Ry
     estimated scf accuracy    <       0.00370551 Ry

     iteration #  7     ecut=    30.00 Ry     beta=0.70
     Davidson diagonalization with overlap
     ethr =  4.63E-05,  avg # of iterations =  2.0

     negative rho (up, down):  1.019E-04 0.000E+00

     total cpu time spent up to now is        2.8 secs

     total energy              =     -24.17612465 Ry
     Harris-Foulkes estimate   =     -24.17612285 Ry
     estimated scf accuracy    <       0.00002620 Ry

     iteration #  8     ecut=    30.00 Ry     beta=0.70
     Davidson diagonalization with overlap
     ethr =  3.27E-07,  avg # of iterations =  3.0

     negative rho (up, down):  1.129E-04 0.000E+00

     total cpu time spent up to now is        3.2 secs

     total energy              =     -24.17613010 Ry
     Harris-Foulkes estimate   =     -24.17614436 Ry
     estimated scf accuracy    <       0.00002715 Ry

     iteration #  9     ecut=    30.00 Ry     beta=0.70
     Davidson diagonalization with overlap
     ethr =  3.27E-07,  avg # of iterations =  2.0

     total cpu time spent up to now is        3.5 secs

     End of self-consistent calculation

          k = 0.0000 0.0000 0.0000 (  5682 PWs)   bands (ev):

   -21.8149 -10.9150 -10.8841  -5.9434

     highest occupied level (ev):    -5.9434

!    total energy              =     -24.17613642 Ry
     Harris-Foulkes estimate   =     -24.17613656 Ry
     estimated scf accuracy    <       0.00000058 Ry

     The total energy is the sum of the following terms:

     one-electron contribution =     -46.08988548 Ry
     hartree contribution      =      24.16927501 Ry
     xc contribution           =      -8.50354020 Ry
     ewald contribution        =       6.24801425 Ry

     convergence has been achieved in   9 iterations

     Forces acting on atoms (cartesian axes, Ry/au):

     atom    1 type  2   force =    -0.06738656   -0.06376749   -0.07019990
     atom    2 type  1   force =     0.07712590   -0.00828114   -0.00954234
     atom    3 type  1   force =    -0.00546987    0.07776298   -0.00824894
     atom    4 type  1   force =    -0.00426948   -0.00571436    0.08799118

     Total force =     0.183253     Total SCF correction =     0.000581

     BFGS Geometry Optimization

     number of scf cycles    =   1
     number of bfgs steps    =   0

     energy   new            =     -24.1761364237 Ry

     new trust radius        =       0.1163411678 bohr
     new conv_thr            =       0.0000010000 Ry


ATOMIC_POSITIONS (angstrom)
N        3.777028252   3.791798383   3.793859498
H        4.839800955   3.641150495   3.628918095
H        3.664953156   4.862453083   3.649932534
H        3.693788375   3.693728777   4.879430611



     Writing output data file pwscf.save
     NEW-OLD atomic charge density approx. for the potential

     Check: negative/imaginary core charge=   -0.000002    0.000000

     total cpu time spent up to now is        4.3 secs

     per-process dynamical memory:    38.9 Mb

     Self-consistent Calculation

     iteration #  1     ecut=    30.00 Ry     beta=0.70
     Davidson diagonalization with overlap
     ethr =  1.00E-06,  avg # of iterations =  6.0

     total cpu time spent up to now is        4.7 secs

     total energy              =     -24.17064180 Ry
     Harris-Foulkes estimate   =     -24.22204476 Ry
     estimated scf accuracy    <       0.08236334 Ry

     iteration #  2     ecut=    30.00 Ry     beta=0.70
     Davidson diagonalization with overlap
     ethr =  1.03E-03,  avg # of iterations =  2.0

     total cpu time spent up to now is        5.0 secs

     total energy              =     -24.18241386 Ry
     Harris-Foulkes estimate   =     -24.19268669 Ry
     estimated scf accuracy    <       0.01675621 Ry

     iteration #  3     ecut=    30.00 Ry     beta=0.70
     Davidson diagonalization with overlap
     ethr =  2.09E-04,  avg # of iterations =  2.0

     total cpu time spent up to now is        5.3 secs

     total energy              =     -24.18694201 Ry
     Harris-Foulkes estimate   =     -24.18896516 Ry
     estimated scf accuracy    <       0.00406817 Ry

     iteration #  4     ecut=    30.00 Ry     beta=0.70
     Davidson diagonalization with overlap
     ethr =  5.09E-05,  avg # of iterations =  2.0

     total cpu time spent up to now is        5.6 secs

     total energy              =     -24.18782551 Ry
     Harris-Foulkes estimate   =     -24.18783203 Ry
     estimated scf accuracy    <       0.00003963 Ry

     iteration #  5     ecut=    30.00 Ry     beta=0.70
     Davidson diagonalization with overlap
     ethr =  4.95E-07,  avg # of iterations =  2.0

     total cpu time spent up to now is        5.9 secs

     total energy              =     -24.18784236 Ry
     Harris-Foulkes estimate   =     -24.18784197 Ry
     estimated scf accuracy    <       0.00000242 Ry

     iteration #  6     ecut=    30.00 Ry     beta=0.70
     Davidson diagonalization with overlap
     ethr =  3.02E-08,  avg # of iterations =  2.0

     total cpu time spent up to now is        6.2 secs

     End of self-consistent calculation

          k = 0.0000 0.0000 0.0000 (  5682 PWs)   bands (ev):

   -21.2827 -10.3538 -10.3083  -6.2270

     highest occupied level (ev):    -6.2270

!    total energy              =     -24.18784265 Ry
     Harris-Foulkes estimate   =     -24.18784263 Ry
     estimated scf accuracy    <       0.00000013 Ry

     The total energy is the sum of the following terms:

     one-electron contribution =     -44.34399482 Ry
     hartree contribution      =      23.29540067 Ry
     xc contribution           =      -8.34517157 Ry
     ewald contribution        =       5.20592307 Ry

     convergence has been achieved in   6 iterations

     Forces acting on atoms (cartesian axes, Ry/au):

     atom    1 type  2   force =     0.00554661    0.00536795    0.01672004
     atom    2 type  1   force =    -0.02238832    0.00935552    0.00885499
     atom    3 type  1   force =     0.00866116   -0.02305401    0.00823698
     atom    4 type  1   force =     0.00818055    0.00833055   -0.03381201

     Total force =     0.054408     Total SCF correction =     0.000709

     number of scf cycles    =   2
     number of bfgs steps    =   1

     energy   old            =     -24.1761364237 Ry
     energy   new            =     -24.1878426534 Ry

     CASE: energy  _new < energy  _old

     new trust radius        =       0.0272875596 bohr
     new conv_thr            =       0.0000003381 Ry


ATOMIC_POSITIONS (angstrom)
N        3.778900240   3.793619890   3.800403612
H        4.830923944   3.645022303   3.632571203
H        3.668552492   4.853300900   3.653334937
H        3.697194062   3.697187645   4.865830986



     Writing output data file pwscf.save
     NEW-OLD atomic charge density approx. for the potential

     Check: negative/imaginary core charge=   -0.000002    0.000000

     total cpu time spent up to now is        7.0 secs

     per-process dynamical memory:    38.9 Mb

     Self-consistent Calculation

     iteration #  1     ecut=    30.00 Ry     beta=0.70
     Davidson diagonalization with overlap
     ethr =  1.00E-06,  avg # of iterations =  4.0

     total cpu time spent up to now is        7.4 secs

     total energy              =     -24.18899613 Ry
     Harris-Foulkes estimate   =     -24.18964245 Ry
     estimated scf accuracy    <       0.00116063 Ry

     iteration #  2     ecut=    30.00 Ry     beta=0.70
     Davidson diagonalization with overlap
     ethr =  1.45E-05,  avg # of iterations =  2.0

     total cpu time spent up to now is        7.7 secs

     total energy              =     -24.18917737 Ry
     Harris-Foulkes estimate   =     -24.18924995 Ry
     estimated scf accuracy    <       0.00012797 Ry

     iteration #  3     ecut=    30.00 Ry     beta=0.70
     Davidson diagonalization with overlap
     ethr =  1.60E-06,  avg # of iterations =  2.0

     total cpu time spent up to now is        8.0 secs

     total energy              =     -24.18921102 Ry
     Harris-Foulkes estimate   =     -24.18923039 Ry
     estimated scf accuracy    <       0.00003940 Ry

     iteration #  4     ecut=    30.00 Ry     beta=0.70
     Davidson diagonalization with overlap
     ethr =  4.93E-07,  avg # of iterations =  2.0

     total cpu time spent up to now is        8.3 secs

     total energy              =     -24.18922048 Ry
     Harris-Foulkes estimate   =     -24.18922042 Ry
     estimated scf accuracy    <       0.00000093 Ry

     iteration #  5     ecut=    30.00 Ry     beta=0.70
     Davidson diagonalization with overlap
     ethr =  1.16E-08,  avg # of iterations =  2.0

     total cpu time spent up to now is        8.6 secs

     End of self-consistent calculation

          k = 0.0000 0.0000 0.0000 (  5682 PWs)   bands (ev):

   -21.4049 -10.4262 -10.4093  -6.2146

     highest occupied level (ev):    -6.2146

!    total energy              =     -24.18922074 Ry
     Harris-Foulkes estimate   =     -24.18922071 Ry
     estimated scf accuracy    <       0.00000004 Ry

     The total energy is the sum of the following terms:

     one-electron contribution =     -44.69490243 Ry
     hartree contribution      =      23.46982185 Ry
     xc contribution           =      -8.37624027 Ry
     ewald contribution        =       5.41210011 Ry

     convergence has been achieved in   5 iterations

     Forces acting on atoms (cartesian axes, Ry/au):

     atom    1 type  2   force =    -0.00289043   -0.00274146   -0.00723331
     atom    2 type  1   force =    -0.00781927    0.00578147    0.00592883
     atom    3 type  1   force =     0.00556575   -0.00798849    0.00560673
     atom    4 type  1   force =     0.00514395    0.00494849   -0.00430225

     Total force =     0.019839     Total SCF correction =     0.000243

     number of scf cycles    =   3
     number of bfgs steps    =   2

     energy   old            =     -24.1878426534 Ry
     energy   new            =     -24.1892207374 Ry

     CASE: energy  _new < energy  _old

     new trust radius        =       0.0168248286 bohr
     new conv_thr            =       0.0000000799 Ry


ATOMIC_POSITIONS (angstrom)
N        3.776810706   3.791646139   3.796077876
H        4.824708565   3.649500860   3.637107791
H        3.672859526   4.846931609   3.657621727
H        3.701191941   3.701052130   4.861333344



     Writing output data file pwscf.save
     NEW-OLD atomic charge density approx. for the potential

     Check: negative/imaginary core charge=   -0.000002    0.000000

     total cpu time spent up to now is        9.4 secs

     per-process dynamical memory:    38.9 Mb

     Self-consistent Calculation

     iteration #  1     ecut=    30.00 Ry     beta=0.70
     Davidson diagonalization with overlap
     ethr =  1.00E-06,  avg # of iterations =  4.0

     total cpu time spent up to now is        9.7 secs

     total energy              =     -24.18953162 Ry
     Harris-Foulkes estimate   =     -24.18979681 Ry
     estimated scf accuracy    <       0.00055187 Ry

     iteration #  2     ecut=    30.00 Ry     beta=0.70
     Davidson diagonalization with overlap
     ethr =  6.90E-06,  avg # of iterations =  2.0

     total cpu time spent up to now is       10.0 secs

     total energy              =     -24.18959633 Ry
     Harris-Foulkes estimate   =     -24.18960902 Ry
     estimated scf accuracy    <       0.00003196 Ry

     iteration #  3     ecut=    30.00 Ry     beta=0.70
     Davidson diagonalization with overlap
     ethr =  4.00E-07,  avg # of iterations =  2.0

     total cpu time spent up to now is       10.3 secs

     total energy              =     -24.18960204 Ry
     Harris-Foulkes estimate   =     -24.18960662 Ry
     estimated scf accuracy    <       0.00000923 Ry

     iteration #  4     ecut=    30.00 Ry     beta=0.70
     Davidson diagonalization with overlap
     ethr =  1.15E-07,  avg # of iterations =  2.0

     total cpu time spent up to now is       10.7 secs

     total energy              =     -24.18960436 Ry
     Harris-Foulkes estimate   =     -24.18960461 Ry
     estimated scf accuracy    <       0.00000070 Ry

     iteration #  5     ecut=    30.00 Ry     beta=0.70
     Davidson diagonalization with overlap
     ethr =  8.77E-09,  avg # of iterations =  2.0

     total cpu time spent up to now is       10.9 secs

     End of self-consistent calculation

          k = 0.0000 0.0000 0.0000 (  5682 PWs)   bands (ev):

   -21.4661 -10.4282 -10.4128  -6.2611

     highest occupied level (ev):    -6.2611

!    total energy              =     -24.18960452 Ry
     Harris-Foulkes estimate   =     -24.18960452 Ry
     estimated scf accuracy    <       0.00000002 Ry

     The total energy is the sum of the following terms:

     one-electron contribution =     -44.82480102 Ry
     hartree contribution      =      23.53333911 Ry
     xc contribution           =      -8.38737109 Ry
     ewald contribution        =       5.48922847 Ry

     convergence has been achieved in   5 iterations

     Forces acting on atoms (cartesian axes, Ry/au):

     atom    1 type  2   force =    -0.00886490   -0.00833592   -0.00337188
     atom    2 type  1   force =     0.00250124    0.00298289    0.00261012
     atom    3 type  1   force =     0.00313103    0.00226896    0.00255477
     atom    4 type  1   force =     0.00323263    0.00308406   -0.00179301

     Total force =     0.015035     Total SCF correction =     0.000237

     number of scf cycles    =   4
     number of bfgs steps    =   3

     energy   old            =     -24.1892207374 Ry
     energy   new            =     -24.1896045230 Ry

     CASE: energy  _new < energy  _old

     new trust radius        =       0.0237771705 bohr
     new conv_thr            =       0.0000000384 Ry


ATOMIC_POSITIONS (angstrom)
N        3.768298033   3.783645380   3.791404819
H        4.821297100   3.655572322   3.642867509
H        3.678898833   4.843181286   3.663129775
H        3.707076772   3.706731750   4.854738636



     Writing output data file pwscf.save
     NEW-OLD atomic charge density approx. for the potential

     Check: negative/imaginary core charge=   -0.000002    0.000000

     total cpu time spent up to now is       11.8 secs

     per-process dynamical memory:    38.9 Mb

     Self-consistent Calculation

     iteration #  1     ecut=    30.00 Ry     beta=0.70
     Davidson diagonalization with overlap
     ethr =  1.00E-06,  avg # of iterations =  4.0

     total cpu time spent up to now is       12.2 secs

     total energy              =     -24.18937014 Ry
     Harris-Foulkes estimate   =     -24.19122027 Ry
     estimated scf accuracy    <       0.00318038 Ry

     iteration #  2     ecut=    30.00 Ry     beta=0.70
     Davidson diagonalization with overlap
     ethr =  3.98E-05,  avg # of iterations =  2.0

     total cpu time spent up to now is       12.5 secs

     total energy              =     -24.18975109 Ry
     Harris-Foulkes estimate   =     -24.18996762 Ry
     estimated scf accuracy    <       0.00035521 Ry

     iteration #  3     ecut=    30.00 Ry     beta=0.70
     Davidson diagonalization with overlap
     ethr =  4.44E-06,  avg # of iterations =  2.0

     total cpu time spent up to now is       12.8 secs

     total energy              =     -24.18984548 Ry
     Harris-Foulkes estimate   =     -24.18992350 Ry
     estimated scf accuracy    <       0.00015716 Ry

     iteration #  4     ecut=    30.00 Ry     beta=0.70
     Davidson diagonalization with overlap
     ethr =  1.96E-06,  avg # of iterations =  2.0

     total cpu time spent up to now is       13.1 secs

     total energy              =     -24.18987966 Ry
     Harris-Foulkes estimate   =     -24.18988005 Ry
     estimated scf accuracy    <       0.00000177 Ry

     iteration #  5     ecut=    30.00 Ry     beta=0.70
     Davidson diagonalization with overlap
     ethr =  2.21E-08,  avg # of iterations =  2.0

     total cpu time spent up to now is       13.4 secs

     total energy              =     -24.18988033 Ry
     Harris-Foulkes estimate   =     -24.18988030 Ry
     estimated scf accuracy    <       0.00000008 Ry

     iteration #  6     ecut=    30.00 Ry     beta=0.70
     Davidson diagonalization with overlap
     ethr =  1.02E-09,  avg # of iterations =  2.0

     total cpu time spent up to now is       13.7 secs

     End of self-consistent calculation

          k = 0.0000 0.0000 0.0000 (  5682 PWs)   bands (ev):

   -21.5094 -10.3835 -10.3633  -6.3591

     highest occupied level (ev):    -6.3591

!    total energy              =     -24.18988034 Ry
     Harris-Foulkes estimate   =     -24.18988034 Ry
     estimated scf accuracy    <          2.9E-09 Ry

     The total energy is the sum of the following terms:

     one-electron contribution =     -44.85589560 Ry
     hartree contribution      =      23.54692095 Ry
     xc contribution           =      -8.38932833 Ry
     ewald contribution        =       5.50842264 Ry

     convergence has been achieved in   6 iterations

     Forces acting on atoms (cartesian axes, Ry/au):

     atom    1 type  2   force =    -0.00232510   -0.00224712   -0.00775744
     atom    2 type  1   force =     0.00151715    0.00038179    0.00056969
     atom    3 type  1   force =     0.00043103    0.00161629    0.00056538
     atom    4 type  1   force =     0.00037691    0.00024903    0.00662237

     Total force =     0.010981     Total SCF correction =     0.000089

     number of scf cycles    =   5
     number of bfgs steps    =   4

     energy   old            =     -24.1896045230 Ry
     energy   new            =     -24.1898803393 Ry

     CASE: energy  _new < energy  _old

     new trust radius        =       0.0116270079 bohr
     new conv_thr            =       0.0000000276 Ry


ATOMIC_POSITIONS (angstrom)
N        3.765361478   3.780856812   3.786772666
H        4.820569463   3.657448831   3.644756044
H        3.680769705   4.842409085   3.664938494
H        3.708870092   3.708416010   4.855673534



     Writing output data file pwscf.save
     NEW-OLD atomic charge density approx. for the potential

     Check: negative/imaginary core charge=   -0.000002    0.000000

     total cpu time spent up to now is       14.5 secs

     per-process dynamical memory:    38.9 Mb

     Self-consistent Calculation

     iteration #  1     ecut=    30.00 Ry     beta=0.70
     Davidson diagonalization with overlap
     ethr =  1.00E-06,  avg # of iterations =  3.0

     total cpu time spent up to now is       14.8 secs

     total energy              =     -24.18980148 Ry
     Harris-Foulkes estimate   =     -24.19026628 Ry
     estimated scf accuracy    <       0.00076369 Ry

     iteration #  2     ecut=    30.00 Ry     beta=0.70
     Davidson diagonalization with overlap
     ethr =  9.55E-06,  avg # of iterations =  2.0

     total cpu time spent up to now is       15.1 secs

     total energy              =     -24.18990126 Ry
     Harris-Foulkes estimate   =     -24.18995745 Ry
     estimated scf accuracy    <       0.00008906 Ry

     iteration #  3     ecut=    30.00 Ry     beta=0.70
     Davidson diagonalization with overlap
     ethr =  1.11E-06,  avg # of iterations =  2.0

     total cpu time spent up to now is       15.4 secs

     total energy              =     -24.18992365 Ry
     Harris-Foulkes estimate   =     -24.18994061 Ry
     estimated scf accuracy    <       0.00003353 Ry

     iteration #  4     ecut=    30.00 Ry     beta=0.70
     Davidson diagonalization with overlap
     ethr =  4.19E-07,  avg # of iterations =  2.0

     total cpu time spent up to now is       15.7 secs

     total energy              =     -24.18993100 Ry
     Harris-Foulkes estimate   =     -24.18993113 Ry
     estimated scf accuracy    <       0.00000042 Ry

     iteration #  5     ecut=    30.00 Ry     beta=0.70
     Davidson diagonalization with overlap
     ethr =  5.25E-09,  avg # of iterations =  2.0

     total cpu time spent up to now is       16.0 secs

     End of self-consistent calculation

          k = 0.0000 0.0000 0.0000 (  5682 PWs)   bands (ev):

   -21.5058 -10.3426 -10.3369  -6.4013

     highest occupied level (ev):    -6.4013

!    total energy              =     -24.18993114 Ry
     Harris-Foulkes estimate   =     -24.18993114 Ry
     estimated scf accuracy    <       0.00000002 Ry

     The total energy is the sum of the following terms:

     one-electron contribution =     -44.80979971 Ry
     hartree contribution      =      23.52313361 Ry
     xc contribution           =      -8.38485090 Ry
     ewald contribution        =       5.48158586 Ry

     convergence has been achieved in   5 iterations

     Forces acting on atoms (cartesian axes, Ry/au):

     atom    1 type  2   force =    -0.00081913   -0.00076886    0.00100565
     atom    2 type  1   force =     0.00121931   -0.00026179   -0.00033190
     atom    3 type  1   force =    -0.00022769    0.00118497   -0.00030580
     atom    4 type  1   force =    -0.00017249   -0.00015431   -0.00036795

     Total force =     0.002383     Total SCF correction =     0.000266
     SCF correction compared to forces is large: reduce conv_thr to get better values

     number of scf cycles    =   6
     number of bfgs steps    =   5

     energy   old            =     -24.1898803393 Ry
     energy   new            =     -24.1899311423 Ry

     CASE: energy  _new < energy  _old

     new trust radius        =       0.0015447547 bohr
     new conv_thr            =       0.0000000100 Ry


ATOMIC_POSITIONS (angstrom)
N        3.765451327   3.780940714   3.787336943
H        4.821183597   3.657071329   3.644370617
H        3.680405150   4.843025442   3.664573844
H        3.708530663   3.708093254   4.855859334



     Writing output data file pwscf.save
     NEW-OLD atomic charge density approx. for the potential

     Check: negative/imaginary core charge=   -0.000002    0.000000

     total cpu time spent up to now is       16.8 secs

     per-process dynamical memory:    38.9 Mb

     Self-consistent Calculation

     iteration #  1     ecut=    30.00 Ry     beta=0.70
     Davidson diagonalization with overlap
     ethr =  1.00E-06,  avg # of iterations =  2.0

     Threshold (ethr) on eigenvalues was too large:
     Diagonalizing with lowered threshold

     Davidson diagonalization with overlap
     ethr =  7.34E-08,  avg # of iterations =  1.0

     total cpu time spent up to now is       17.1 secs

     total energy              =     -24.18993242 Ry
     Harris-Foulkes estimate   =     -24.18993584 Ry
     estimated scf accuracy    <       0.00000637 Ry

     iteration #  2     ecut=    30.00 Ry     beta=0.70
     Davidson diagonalization with overlap
     ethr =  7.97E-08,  avg # of iterations =  2.0

     total cpu time spent up to now is       17.4 secs

     total energy              =     -24.18993319 Ry
     Harris-Foulkes estimate   =     -24.18993344 Ry
     estimated scf accuracy    <       0.00000049 Ry

     iteration #  3     ecut=    30.00 Ry     beta=0.70
     Davidson diagonalization with overlap
     ethr =  6.11E-09,  avg # of iterations =  2.0

     total cpu time spent up to now is       17.7 secs

     total energy              =     -24.18993330 Ry
     Harris-Foulkes estimate   =     -24.18993338 Ry
     estimated scf accuracy    <       0.00000016 Ry

     iteration #  4     ecut=    30.00 Ry     beta=0.70
     Davidson diagonalization with overlap
     ethr =  1.99E-09,  avg # of iterations =  2.0

     total cpu time spent up to now is       18.0 secs

     End of self-consistent calculation

          k = 0.0000 0.0000 0.0000 (  5682 PWs)   bands (ev):

   -21.5006 -10.3400 -10.3396  -6.3968

     highest occupied level (ev):    -6.3968

!    total energy              =     -24.18993333 Ry
     Harris-Foulkes estimate   =     -24.18993334 Ry
     estimated scf accuracy    <          8.1E-09 Ry

     The total energy is the sum of the following terms:

     one-electron contribution =     -44.79926938 Ry
     hartree contribution      =      23.51772167 Ry
     xc contribution           =      -8.38390220 Ry
     ewald contribution        =       5.47551657 Ry

     convergence has been achieved in   4 iterations

     Forces acting on atoms (cartesian axes, Ry/au):

     atom    1 type  2   force =    -0.00007314   -0.00007504   -0.00010170
     atom    2 type  1   force =     0.00007893    0.00000527    0.00000980
     atom    3 type  1   force =    -0.00000209    0.00007096    0.00000592
     atom    4 type  1   force =    -0.00000369   -0.00000119    0.00008599

     Total force =     0.000200     Total SCF correction =     0.000084
     SCF correction compared to forces is large: reduce conv_thr to get better values

     bfgs converged in   7 scf cycles and   6 bfgs steps
     (criteria: energy <  1.0E-04 Ry, force <  1.0E-03 Ry/Bohr)

     End of BFGS Geometry Optimization

     Final energy   =     -24.1899333336 Ry
Begin final coordinates

ATOMIC_POSITIONS (angstrom)
N        3.765451327   3.780940714   3.787336943
H        4.821183597   3.657071329   3.644370617
H        3.680405150   4.843025442   3.664573844
H        3.708530663   3.708093254   4.855859334
End final coordinates



     Writing output data file pwscf.save

     init_run     :      0.36s CPU      0.38s WALL (       1 calls)
     electrons    :     12.60s CPU     12.83s WALL (       7 calls)
     update_pot   :      2.16s CPU      2.21s WALL (       6 calls)
     forces       :      2.38s CPU      2.45s WALL (       7 calls)

     Called by init_run:
     wfcinit      :      0.02s CPU      0.02s WALL (       1 calls)
     potinit      :      0.24s CPU      0.26s WALL (       1 calls)

     Called by electrons:
     c_bands      :      2.69s CPU      2.68s WALL (      41 calls)
     sum_band     :      1.01s CPU      1.01s WALL (      41 calls)
     v_of_rho     :      9.40s CPU      9.63s WALL (      47 calls)
     mix_rho      :      0.64s CPU      0.68s WALL (      41 calls)

     Called by c_bands:
     init_us_2    :      0.06s CPU      0.06s WALL (      83 calls)
     regterg      :      2.64s CPU      2.64s WALL (      41 calls)

     Called by sum_band:

     Called by *egterg:
     h_psi        :      2.49s CPU      2.46s WALL (     146 calls)
     g_psi        :      0.04s CPU      0.04s WALL (     104 calls)
     rdiaghg      :      0.02s CPU      0.02s WALL (     138 calls)

     Called by h_psi:
     h_psi:pot    :      2.47s CPU      2.44s WALL (     146 calls)
     h_psi:calbec :      0.02s CPU      0.02s WALL (     146 calls)
     vloc_psi     :      2.44s CPU      2.41s WALL (     146 calls)
     add_vuspsi   :      0.01s CPU      0.01s WALL (     146 calls)

     General routines
     calbec       :      0.03s CPU      0.02s WALL (     174 calls)
     fft          :      2.86s CPU      2.93s WALL (     595 calls)
     fftw         :      2.11s CPU      2.17s WALL (     646 calls)

     Parallel routines
     fft_scatter  :      1.09s CPU      1.23s WALL (    1241 calls)

     PWSCF        :    17.97s CPU        18.45s WALL


   This run was terminated on:  23: 7: 3  10Jun2017            

=------------------------------------------------------------------------------=
   JOB DONE.
=------------------------------------------------------------------------------=
